<preamble>

<basis_specs>
===============================================================================
Mo                   Z=  42    Mass=  95.950        Charge= 0.17977+309
Lmxo=2 Lmxkb= 2    BasisType=nodes      Semic=T
L=0  Nsemic=1  Cnfigmx=5
          i=1  nzeta=1  polorb=0  (4s)  (semicore shell)
            splnorm:   0.15000    
               vcte:    40.000    
               rinn:  -0.90000    
               qcoe:    0.0000    
               qyuk:    0.0000    
               qwid:   0.10000E-01
                rcs:    2.9430    
            lambdas:    1.0000    
          i=2  nzeta=2  polorb=0  (5s)  (to be polarized non-perturbatively)
            splnorm:   0.15000    
               vcte:    40.000    
               rinn:  -0.90000    
               qcoe:    0.0000    
               qyuk:    0.0000    
               qwid:   0.10000E-01
                rcs:    7.6870      7.6870    
            lambdas:    1.0000      1.0000    
L=1  Nsemic=1  Cnfigmx=5
          i=1  nzeta=1  polorb=0  (4p)  (semicore shell)
            splnorm:   0.15000    
               vcte:    40.000    
               rinn:  -0.90000    
               qcoe:    0.0000    
               qyuk:    0.0000    
               qwid:   0.10000E-01
                rcs:    3.3597    
            lambdas:    1.0000    
          i=2  nzeta=1  polorb=0  (5p)  (non-perturbative polarization shell)
            splnorm:   0.15000    
               vcte:    40.000    
               rinn:  -0.90000    
               qcoe:   0.69334-309
               qyuk:    0.0000    
               qwid:   0.69334-309
                rcs:    7.6870    
            lambdas:    1.0000    
L=2  Nsemic=0  Cnfigmx=4
          i=1  nzeta=2  polorb=0  (4d)
            splnorm:   0.15000    
               vcte:    40.000    
               rinn:  -0.90000    
               qcoe:    0.0000    
               qyuk:    0.0000    
               qwid:   0.10000E-01
                rcs:    5.7494      5.7494    
            lambdas:    1.0000      1.0000    
-------------------------------------------------------------------------------
L=0  Nkbl=2  erefs: 0.17977+309 0.17977+309
L=1  Nkbl=2  erefs: 0.17977+309 0.17977+309
L=2  Nkbl=1  erefs: 0.17977+309
===============================================================================
</basis_specs>

<pseudopotential_header>
 Mo pb nrl pcec
 ONCVPSP-3.2017-10-31Hamann's oncvpsp                        
 4s 2.00  r= 1.46/4p 6.00  r= 1.46/4d 5.00  r= 1.35/                    4s:4p:4d:5s:
</pseudopotential_header>
</preamble>
Mo                            # Symbol
Mo                            # Label
   42                         # Atomic number
     14.0000000000                             # Valence charge
     95.9500000000        # Mass 
     249.076163377        # Self energy 
   2   7                      # Lmax for basis, no. of nl orbitals 
   2   6                      # Lmax for projectors, no. of nl KB projectors
# PAOs:__________________________
  0  4  1  0  2.000000   #orbital l, n, z, is_polarized, population
 500    0.5897844184210752E-02     2.943024247921165     # npts, delta, cutoff
     0.000000000000000        0.1440435378864780    
    0.5897844184210752E-02    0.1442068263252413    
    0.1179568836842150E-01    0.1447066374097448    
    0.1769353255263226E-01    0.1455392780541250    
    0.2359137673684301E-01    0.1467041747633329    
    0.2948922092105376E-01    0.1482005270610595    
    0.3538706510526451E-01    0.1500273072454262    
    0.4128490928947526E-01    0.1521832611583941    
    0.4718275347368601E-01    0.1546669092550573    
    0.5308059765789677E-01    0.1574765478919134    
    0.5897844184210752E-01    0.1606102508162706    
    0.6487628602631827E-01    0.1640658708502497    
    0.7077413021052903E-01    0.1678410417654848    
    0.7667197439473977E-01    0.1719331803453585    
    0.8256981857895053E-01    0.1763394886317136    
    0.8846766276316127E-01    0.1810569563529545    
    0.9436550694737203E-01    0.1860823635303780    
    0.1002633511315828        0.1914122832594484    
    0.1061611953157935        0.1970430846625989    
    0.1120590395000043        0.2029709360100458    
    0.1179568836842150        0.2091918080049663    
    0.1238547278684258        0.2157014772292783    
    0.1297525720526365        0.2224955297461624    
    0.1356504162368473        0.2295693648553423    
    0.1415482604210581        0.2369181989970425    
    0.1474461046052688        0.2445370698004400    
    0.1533439487894795        0.2524208402723345    
    0.1592417929736903        0.2605642031216625    
    0.1651396371579011        0.2689616852154209    
    0.1710374813421118        0.2776076521614490    
    0.1769353255263225        0.2864963130134642    
    0.1828331697105333        0.2956217250936642    
    0.1887310138947441        0.3049777989281529    
    0.1946288580789548        0.3145583032903697    
    0.2005267022631656        0.3243568703476606    
    0.2064245464473763        0.3343670009060594    
    0.2123223906315871        0.3445820697483058    
    0.2182202348157978        0.3549953310600754    
    0.2241180790000086        0.3655999239393627    
    0.2300159231842193        0.3763888779838950    
    0.2359137673684301        0.3873551189514443    
    0.2418116115526408        0.3984914744878428    
    0.2477094557368516        0.4097906799174962    
    0.2536072999210623        0.4212453840911398    
    0.2595051441052731        0.4328481552855626    
    0.2654029882894838        0.4445914871499955    
    0.2713008324736946        0.4564678046938302    
    0.2771986766579053        0.4684694703103139    
    0.2830965208421161        0.4805887898308404    
    0.2889943650263269        0.4928180186044359    
    0.2948922092105376        0.5051493675970157    
    0.3007900533947483        0.5175750095049699    
    0.3066878975789591        0.5300870848776192    
    0.3125857417631698        0.5426777082430604    
    0.3184835859473806        0.5553389742319054    
    0.3243814301315914        0.5680629636934024    
    0.3302792743158021        0.5808417497984215    
    0.3361771185000129        0.5936674041237556    
    0.3420749626842236        0.6065320027122066    
    0.3479728068684343        0.6194276321028747    
    0.3538706510526451        0.6323463953261163    
    0.3597684952368559        0.6452804178575761    
    0.3656663394210666        0.6582218535257506    
    0.3715641836052774        0.6711628903674963    
    0.3774620277894881        0.6840957564259421    
    0.3833598719736989        0.6970127254852553    
    0.3892577161579096        0.7099061227367364    
    0.3951555603421203        0.7227683303707501    
    0.4010534045263311        0.7355917930890220    
    0.4069512487105419        0.7483690235318986    
    0.4128490928947526        0.7610926076151762    
    0.4187469370789634        0.7737552097712393    
    0.4246447812631741        0.7863495780892483    
    0.4305426254473849        0.7988685493492838    
    0.4364404696315957        0.8113050539453961    
    0.4423383138158064        0.8236521206926841    
    0.4482361580000171        0.8359028815136333    
    0.4541340021842279        0.8480505759991104    
    0.4600318463684386        0.8600885558395843    
    0.4659296905526494        0.8720102891223411    
    0.4718275347368601        0.8838093644906558    
    0.4777253789210709        0.8954794951611188    
    0.4836232231052817        0.9070145227955527    
    0.4895210672894924        0.9184084212242188    
    0.4954189114737031        0.9296553000172677    
    0.5013167556579139        0.9407494079016823    
    0.5072145998421247        0.9516851360212580    
    0.5131124440263354        0.9624570210374314    
    0.5190102882105462        0.9730597480691274    
    0.5249081323947569        0.9834881534700242    
    0.5308059765789677        0.9937372274420329    
    0.5367038207631785         1.003802116483979    
    0.5426016649473892         1.013678125674877    
    0.5484995091315999         1.023360720791386    
    0.5543973533158106         1.032845530259352    
    0.5602951975000214         1.042128346939611    
    0.5661930416842322         1.051205129748420    
    0.5720908858684429         1.060072005113180    
    0.5779887300526537         1.068725268264268    
    0.5838865742368644         1.077161384364024    
    0.5897844184210752         1.085376989474116    
    0.5956822626052859         1.093368891362613    
    0.6015801067894967         1.101134070152328    
    0.6074779509737075         1.108669678812052    
    0.6133757951579182         1.115973043492413    
    0.6192736393421290         1.123041663708241    
    0.6251714835263397         1.129873212369376    
    0.6310693277105505         1.136465535661920    
    0.6369671718947612         1.142816652782083    
    0.6428650160789720         1.148924755524703    
    0.6487628602631828         1.154788207728765    
    0.6546607044473934         1.160405544582114    
    0.6605585486316042         1.165775471787771    
    0.6664563928158149         1.170896864594221    
    0.6723542370000257         1.175768766692132    
    0.6782520811842364         1.180390388980032    
    0.6841499253684472         1.184761108201514    
    0.6900477695526580         1.188880465456609    
    0.6959456137368687         1.192748164590003    
    0.7018434579210795         1.196364070458884    
    0.7077413021052902         1.199728207083237    
    0.7136391462895010         1.202840755681468    
    0.7195369904737118         1.205702052594321    
    0.7254348346579225         1.208312587100113    
    0.7313326788421333         1.210672999124388    
    0.7372305230263440         1.212784076847140    
    0.7431283672105548         1.214646754210847    
    0.7490262113947654         1.216262108332623    
    0.7549240555789762         1.217631356823839    
    0.7608218997631870         1.218755855020686    
    0.7667197439473977         1.219637093129155    
    0.7726175881316085         1.220276693288045    
    0.7785154323158192         1.220676406553621    
    0.7844132765000300         1.220838109809657    
    0.7903111206842407         1.220763802606620    
    0.7962089648684515         1.220455603933865    
    0.8021068090526623         1.219915748928737    
    0.8080046532368730         1.219146585526546    
    0.8139024974210838         1.218150571055442    
    0.8198003416052945         1.216930268780286    
    0.8256981857895053         1.215488344399634    
    0.8315960299737161         1.213827562500022    
    0.8374938741579268         1.211950782971775    
    0.8433917183421376         1.209860957390595    
    0.8492895625263482         1.207561125369221    
    0.8551874067105590         1.205054410883465    
    0.8610852508947697         1.202344018576957    
    0.8669830950789805         1.199433230048921    
    0.8728809392631913         1.196325400129318    
    0.8787787834474020         1.193023953145675    
    0.8846766276316128         1.189532379185874    
    0.8905744718158235         1.185854230361191    
    0.8964723160000343         1.181993116982364    
    0.9023701601842450         1.177952753817044    
    0.9082680043684558         1.173736806425663    
    0.9141658485526666         1.169349037699925    
    0.9200636927368773         1.164793254116977    
    0.9259615369210881         1.160073301992408    
    0.9318593811052988         1.155193063859310    
    0.9377572252895096         1.150156454879271    
    0.9436550694737202         1.144967419288774    
    0.9495529136579310         1.139629926884411    
    0.9554507578421418         1.134147969550152    
    0.9613486020263525         1.128525557829782    
    0.9672464462105633         1.122766717547471    
    0.9731442903947740         1.116875486479313    
    0.9790421345789848         1.110855911078468    
    0.9849399787631956         1.104712043256457    
    0.9908378229474063         1.098447937222945    
    0.9967356671316171         1.092067646386214    
     1.002633511315828         1.085575220316395    
     1.008531355500039         1.078974701773316    
     1.014429199684249         1.072270123800736    
     1.020327043868460         1.065465506888531    
     1.026224888052671         1.058564856204272    
     1.032122732236882         1.051572158895495    
     1.038020576421092         1.044491381463803    
     1.043918420605303         1.037326467211804    
     1.049816264789514         1.030081333763773    
     1.055714108973725         1.022759870660778    
     1.061611953157935         1.015365937030872    
     1.067509797342146         1.007903359334883    
     1.073407641526357         1.000375929188138    
     1.079305485710568        0.9927874012584301    
     1.085203329894778        0.9851414912403580    
     1.091101174078989        0.9774418739061275    
     1.096999018263200        0.9696921812327453    
     1.102896862447411        0.9618960006055047    
     1.108794706631621        0.9540568730975202    
     1.114692550815832        0.9461782918250237    
     1.120590395000043        0.9382637003780347    
     1.126488239184254        0.9303164913259511    
     1.132386083368464        0.9223400047975282    
     1.138283927552675        0.9143375271346582    
     1.144181771736886        0.9063122896192899    
     1.150079615921097        0.8982674672727734    
     1.155977460105307        0.8902061777268615    
     1.161875304289518        0.8821314801655434    
     1.167773148473729        0.8740463743368372    
     1.173670992657940        0.8659537996336293    
     1.179568836842150        0.8578566342426035    
     1.185466681026361        0.8497576943602577    
     1.191364525210572        0.8416597334749828    
     1.197262369394783        0.8335654417141319    
     1.203160213578993        0.8254774452549908    
     1.209058057763204        0.8173983057985268    
     1.214955901947415        0.8093305201047621    
     1.220853746131626        0.8012765195886120    
     1.226751590315836        0.7932386699749890    
     1.232649434500047        0.7852192710119787    
     1.238547278684258        0.7772205562408548    
     1.244445122868469        0.7692446928217104    
     1.250342967052679        0.7612937814134485    
     1.256240811236890        0.7533698561068946    
     1.262138655421101        0.7454748844097612    
     1.268036499605312        0.7376107672822100    
     1.273934343789522        0.7297793392217343    
     1.279832187973733        0.7219823683961075    
     1.285730032157944        0.7142215568231328    
     1.291627876342155        0.7064985405959108    
     1.297525720526366        0.6988148901523502    
     1.303423564710576        0.6911721105877087    
     1.309321408894787        0.6835716420091801    
     1.315219253078998        0.6760148599308389    
     1.321117097263208        0.6685030757077064    
     1.327014941447419        0.6610375370079390    
     1.332912785631630        0.6536194283223250    
     1.338810629815841        0.6462498715078121    
     1.344708474000051        0.6389299263667290    
     1.350606318184262        0.6316605912640022    
     1.356504162368473        0.6244428037834759    
     1.362402006552684        0.6172774414199403    
     1.368299850736894        0.6101653223079888    
     1.374197694921105        0.6031072059877717    
     1.380095539105316        0.5961037941952129    
     1.385993383289527        0.5891557316641021    
     1.391891227473737        0.5822636069383038    
     1.397789071657948        0.5754279532025548    
     1.403686915842159        0.5686492491293165    
     1.409584760026370        0.5619279197184388    
     1.415482604210580        0.5552643371060860    
     1.421380448394791        0.5486588217225212    
     1.427278292579002        0.5421116435123328    
     1.433176136763213        0.5356230229668304    
     1.439073980947424        0.5291931308167075    
     1.444971825131634        0.5228220882210719    
     1.450869669315845        0.5165099684133326    
     1.456767513500056        0.5102568012094680    
     1.462665357684267        0.5040625782952214    
     1.468563201868477        0.4979272590867517    
     1.474461046052688        0.4918507768721659    
     1.480358890236899        0.4858330444054825    
     1.486256734421110        0.4798739574895270    
     1.492154578605320        0.4739733951731147    
     1.498052422789531        0.4681312191710673    
     1.503950266973742        0.4623472734766118    
     1.509848111157952        0.4566213855251427    
     1.515745955342163        0.4509533672064767    
     1.521643799526374        0.4453430158073866    
     1.527541643710585        0.4397901145544001    
     1.533439487894795        0.4342944332192020    
     1.539337332079006        0.4288557281109417    
     1.545235176263217        0.4234737433741607    
     1.551133020447428        0.4181482118056397    
     1.557030864631638        0.4128788551939339    
     1.562928708815849        0.4076653848737820    
     1.568826553000060        0.4025075022629104    
     1.574724397184271        0.3974048993810937    
     1.580622241368481        0.3923572593532658    
     1.586520085552692        0.3873642568959234    
     1.592417929736903        0.3824255587871538    
     1.598315773921114        0.3775408243206423    
     1.604213618105325        0.3727097057441892    
     1.610111462289535        0.3679318486832555    
     1.616009306473746        0.3632068925499242    
     1.621907150657957        0.3585344709376807    
     1.627804994842168        0.3539142120024141    
     1.633702839026378        0.3493457388300109    
     1.639600683210589        0.3448286697909387    
     1.645498527394800        0.3403626188821904    
     1.651396371579011        0.3359471960569418    
     1.657294215763221        0.3315820075422888    
     1.663192059947432        0.3272666561454092    
     1.669089904131643        0.3230007415484847    
     1.674987748315854        0.3187838605927144    
     1.680885592500064        0.3146156075517494    
     1.686783436684275        0.3104955743948522    
     1.692681280868486        0.3064233510401002    
     1.698579125052696        0.3023985255979261    
     1.704476969236907        0.2984206846052927    
     1.710374813421118        0.2944894132507795    
     1.716272657605329        0.2906042955908748    
     1.722170501789539        0.2867649147577241    
     1.728068345973750        0.2829708531586179    
     1.733966190157961        0.2792216926674677    
     1.739864034342172        0.2755170148085199    
     1.745761878526383        0.2718564009325561    
     1.751659722710593        0.2682394323858173    
     1.757557566894804        0.2646656906718798    
     1.763455411079015        0.2611347576067159    
     1.769353255263226        0.2576462154671497    
     1.775251099447436        0.2541996471329277    
     1.781148943631647        0.2507946362226107    
     1.787046787815858        0.2474307672234913    
     1.792944632000069        0.2441076256157227    
     1.798842476184279        0.2408247979908642    
     1.804740320368490        0.2375818721650212    
     1.810638164552701        0.2343784372867574    
     1.816536008736912        0.2312140839399632    
     1.822433852921122        0.2280884042418374    
     1.828331697105333        0.2250009919361603    
     1.834229541289544        0.2219514424820122    
     1.840127385473755        0.2189393531380895    
     1.846025229657965        0.2159643230427795    
     1.851923073842176        0.2130259532901261    
     1.857820918026387        0.2101238470018430    
     1.863718762210598        0.2072576093955033    
     1.869616606394808        0.2044268478490395    
     1.875514450579019        0.2016311719616909    
     1.881412294763230        0.1988701936115099    
     1.887310138947440        0.1961435270095647    
     1.893207983131651        0.1934507887509448    
     1.899105827315862        0.1907915978626925    
     1.905003671500073        0.1881655758487584    
     1.910901515684284        0.1855723467321035    
     1.916799359868494        0.1830115370940412    
     1.922697204052705        0.1804827761109214    
     1.928595048236916        0.1779856955882584    
     1.934492892421127        0.1755199299923904    
     1.940390736605337        0.1730851164797679    
     1.946288580789548        0.1706808949239557    
     1.952186424973759        0.1683069079404312    
     1.958084269157970        0.1659628009092704    
     1.963982113342180        0.1636482219957915    
     1.969879957526391        0.1613628221692408    
     1.975777801710602        0.1591062552195900    
     1.981675645894813        0.1568781777725223    
     1.987573490079023        0.1546782493026714    
     1.993471334263234        0.1525061321451898    
     1.999369178447445        0.1503614915056976    
     2.005267022631656        0.1482439954686917    
     2.011164866815867        0.1461533150044626    
     2.017062711000077        0.1440891239745862    
     2.022960555184288        0.1420510991360422    
     2.028858399368499        0.1400389201440175    
     2.034756243552709        0.1380522695534473    
     2.040654087736920        0.1360908328193445    
     2.046551931921131        0.1341542982959661    
     2.052449776105342        0.1322423572348657    
     2.058347620289553        0.1303547037818819    
     2.064245464473763        0.1284910349730979    
     2.070143308657974        0.1266510507298265    
     2.076041152842185        0.1248344538526546    
     2.081938997026395        0.1230409500145919    
     2.087836841210606        0.1212702477533578    
     2.093734685394817        0.1195220584628515    
     2.099632529579027        0.1177960963838340    
     2.105530373763238        0.1160920785938614    
     2.111428217947449        0.1144097249965038    
     2.117326062131660        0.1127487583098786    
     2.123223906315871        0.1111089040545345    
     2.129121750500081        0.1094898905407132    
     2.135019594684292        0.1078914488550198    
     2.140917438868503        0.1063133128465315    
     2.146815283052714        0.1047552191123678    
     2.152713127236924        0.1032169069827551    
     2.158610971421135        0.1016981185056057    
     2.164508815605346        0.1001985984306376    
     2.170406659789557        0.9871809419306338E-01
     2.176304503973768        0.9725635589686124E-01
     2.182202348157978        0.9581313629766261E-01
     2.188100192342189        0.9438819078526892E-01
     2.193998036526400        0.9298127736582096E-01
     2.199895880710610        0.9159215664364279E-01
     2.205793724894821        0.9022059180277829E-01
     2.211691569079032        0.8886634858823664E-01
     2.217589413263243        0.8752919528696880E-01
     2.223487257447454        0.8620890270859184E-01
     2.229385101631664        0.8490524416587400E-01
     2.235282945815875        0.8361799545500082E-01
     2.241180790000086        0.8234693483563967E-01
     2.247078634184296        0.8109184301080903E-01
     2.252976478368507        0.7985250310657890E-01
     2.258874322552718        0.7862870065160914E-01
     2.264772166736929        0.7742022355653813E-01
     2.270670010921140        0.7622686209324178E-01
     2.276567855105350        0.7504840887397057E-01
     2.282465699289561        0.7388465883037534E-01
     2.288363543473772        0.7273540919243961E-01
     2.294261387657982        0.7160045946732545E-01
     2.300159231842193        0.7047961141814293E-01
     2.306057076026404        0.6937266904265885E-01
     2.311954920210615        0.6827943855194936E-01
     2.317852764394825        0.6719972834900946E-01
     2.323750608579036        0.6613334900732883E-01
     2.329648452763247        0.6508011324944103E-01
     2.335546296947458        0.6403983592545734E-01
     2.341444141131669        0.6301233399159172E-01
     2.347341985315879        0.6199742648868614E-01
     2.353239829500090        0.6099493452074330E-01
     2.359137673684301        0.6000468123347497E-01
     2.365035517868511        0.5902649179287256E-01
     2.370933362052722        0.5806019336380715E-01
     2.376831206236933        0.5710561508866441E-01
     2.382729050421144        0.5616258806602289E-01
     2.388626894605355        0.5523094532938068E-01
     2.394524738789565        0.5431052182593408E-01
     2.400422582973776        0.5340115439541782E-01
     2.406320427157987        0.5250268174900967E-01
     2.412218271342197        0.5161494444830354E-01
     2.418116115526408        0.5073778488435875E-01
     2.424013959710619        0.4987104725682742E-01
     2.429911803894830        0.4901457755316554E-01
     2.435809648079041        0.4816822352793209E-01
     2.441707492263251        0.4733183468217819E-01
     2.447605336447462        0.4650526224293387E-01
     2.453503180631673        0.4568835914279012E-01
     2.459401024815884        0.4488097999958655E-01
     2.465298869000094        0.4408298109620028E-01
     2.471196713184305        0.4329422036044565E-01
     2.477094557368516        0.4251455734508344E-01
     2.482992401552726        0.4174385320794285E-01
     2.488890245736937        0.4098197069215970E-01
     2.494788089921148        0.4022877410653171E-01
     2.500685934105359        0.3948412930599490E-01
     2.506583778289570        0.3874790367221970E-01
     2.512481622473780        0.3801996609433209E-01
     2.518379466657991        0.3730018694975979E-01
     2.524277310842202        0.3658843808520354E-01
     2.530175155026412        0.3588459279773797E-01
     2.536072999210623        0.3518852581604025E-01
     2.541970843394834        0.3450011328174947E-01
     2.547868687579045        0.3381923273095711E-01
     2.553766531763256        0.3314576307582830E-01
     2.559664375947466        0.3247958458635835E-01
     2.565562220131677        0.3182057887225870E-01
     2.571460064315888        0.3116862886498021E-01
     2.577357908500098        0.3052361879986832E-01
     2.583255752684309        0.2988543419845374E-01
     2.589153596868520        0.2925396185087744E-01
     2.595051441052731        0.2862908979844965E-01
     2.600949285236942        0.2801070731634638E-01
     2.606847129421152        0.2739870489643729E-01
     2.612744973605363        0.2679297423025120E-01
     2.618642817789574        0.2619340819207493E-01
     2.624540661973785        0.2559990082218614E-01
     2.630438506157995        0.2501234731022176E-01
     2.636336350342206        0.2443064397867793E-01
     2.642234194526417        0.2385468826654595E-01
     2.648132038710628        0.2328437871307883E-01
     2.654029882894839        0.2271961494169113E-01
     2.659927727079049        0.2216029764399043E-01
     2.665825571263260        0.2160632856394044E-01
     2.671723415447471        0.2105761048215333E-01
     2.677621259631681        0.2051404720031327E-01
     2.683519103815892        0.1997554352572885E-01
     2.689416948000103        0.1944200525601278E-01
     2.695314792184313        0.1891333916389036E-01
     2.701212636368524        0.1838945298213317E-01
     2.707110480552735        0.1787025538862130E-01
     2.713008324736946        0.1735565599152677E-01
     2.718906168921157        0.1684556531462477E-01
     2.724804013105367        0.1633989478272523E-01
     2.730701857289578        0.1583855670722802E-01
     2.736599701473789        0.1534146427179874E-01
     2.742497545657999        0.1484853151816502E-01
     2.748395389842210        0.1435967333203219E-01
     2.754293234026421        0.1387480542911658E-01
     2.760191078210632        0.1339384434129631E-01
     2.766088922394843        0.1291670740287748E-01
     2.771986766579053        0.1244331273697705E-01
     2.777884610763264        0.1197357924201744E-01
     2.783782454947475        0.1150742657833599E-01
     2.789680299131686        0.1104477515490434E-01
     2.795578143315896        0.1058554611615949E-01
     2.801475987500107        0.1012966132894313E-01
     2.807373831684318        0.9677043369551507E-02
     2.813271675868529        0.9227615510888446E-02
     2.819169520052740        0.8781301709727660E-02
     2.825067364236950        0.8338026594081813E-02
     2.830965208421161        0.7897715450674489E-02
     2.836863052605372        0.7460294212511689E-02
     2.842760896789582        0.7025689446557142E-02
     2.848658740973793        0.6593828341512994E-02
     2.854556585158004        0.6164638695684409E-02
     2.860454429342214        0.5738048904939177E-02
     2.866352273526426        0.5313987950773862E-02
     2.872250117710636        0.4892385388474872E-02
     2.878147961894847        0.4473171335374442E-02
     2.884045806079058        0.4056276459192001E-02
     2.889943650263268        0.3641631966498009E-02
     2.895841494447479        0.3229169591256577E-02
     2.901739338631690        0.2818821583450229E-02
     2.907637182815901        0.2410520697786603E-02
     2.913535027000111        0.2004200182491312E-02
     2.919432871184322        0.1599793768179971E-02
     2.925330715368533        0.1197235656802119E-02
     2.931228559552744        0.7964605106715866E-03
     2.937126403736954        0.3974034415813758E-03
     2.943024247921165         0.000000000000000    
  0  5  1  0  1.000000   #orbital l, n, z, is_polarized, population
 500    0.1540479683913461E-01     7.686993622728170     # npts, delta, cutoff
     0.000000000000000        0.5765851305219561E-01
    0.1540479683913461E-01    0.5810205967437145E-01
    0.3080959367826922E-01    0.5943404192377563E-01