<preamble>

<basis_specs>
===============================================================================
S                    Z=  16    Mass=  32.060        Charge= 0.17977+309
Lmxo=2 Lmxkb= 2    BasisType=nodes      Semic=F
L=0  Nsemic=1  Cnfigmx=4
          i=1  nzeta=2  polorb=0  (3s)
            splnorm:   0.15000    
               vcte:    40.000    
               rinn:  -0.90000    
               qcoe:    0.0000    
               qyuk:    0.0000    
               qwid:   0.10000E-01
                rcs:    4.4754      4.4754    
            lambdas:    1.0000      1.0000    
          i=2  nzeta=1  polorb=0  (4s)  (higher-lying shell (n> n_valence(l)))
            splnorm:   0.15000    
               vcte:    40.000    
               rinn:  -0.90000    
               qcoe:    0.0000    
               qyuk:    0.0000    
               qwid:   0.10000E-01
                rcs:    8.0011    
            lambdas:    1.0000    
L=1  Nsemic=0  Cnfigmx=3
          i=1  nzeta=2  polorb=1  (3p)  (to be polarized perturbatively)
            splnorm:   0.15000    
               vcte:    40.000    
               rinn:    4.9962    
               qcoe:    0.0000    
               qyuk:    0.0000    
               qwid:   0.10000E-01
                rcs:    5.5457      5.5457    
            lambdas:    1.0000      1.0000    
L=2  Nsemic=0  Cnfigmx=3
          i=1  nzeta=0  polorb=0  (3d)  (perturbative polarization orbital) (from 3p)
-------------------------------------------------------------------------------
L=0  Nkbl=2  erefs: 0.17977+309 0.17977+309
L=1  Nkbl=1  erefs: 0.17977+309
L=2  Nkbl=1  erefs: 0.17977+309
===============================================================================
</basis_specs>

<pseudopotential_header>
 S  pb nrl pcec
 ONCVPSP-4.2023-03-20Hamann's oncvpsp                        
 3s 2.00  r= 1.46/3p 4.00  r= 1.46/3d 0.00  r= 1.46/                    3s:3p:
</pseudopotential_header>
</preamble>
S                             # Symbol
S                             # Label
   16                         # Atomic number
     6.00000000000                             # Valence charge
     32.0600000000        # Mass 
     39.6762508261        # Self energy 
   2   6                      # Lmax for basis, no. of nl orbitals 
   2   6                      # Lmax for projectors, no. of nl KB projectors
# PAOs:__________________________
  0  3  1  0  2.000000   #orbital l, n, z, is_polarized, population
 500    0.8968756677712594E-02     4.475409582178584     # npts, delta, cutoff
     0.000000000000000        0.8580451292777327E-01
    0.8968756677712594E-02    0.8592612294921655E-01
    0.1793751335542519E-01    0.8629339047455220E-01
    0.2690627003313778E-01    0.8690506214531496E-01
    0.3587502671085038E-01    0.8776047693058130E-01
    0.4484378338856297E-01    0.8885871259554988E-01
    0.5381254006627556E-01    0.9019858842938036E-01
    0.6278129674398816E-01    0.9177866888639050E-01
    0.7175005342170075E-01    0.9359726798577984E-01
    0.8071881009941334E-01    0.9565245441456355E-01
    0.8968756677712594E-01    0.9794205728281707E-01
    0.9865632345483853E-01    0.1004636724767163    
    0.1076250801325511        0.1032146695505079    
    0.1165938368102637        0.1061921990946377    
    0.1255625934879763        0.1093932005140822    
    0.1345313501656889        0.1128144101485528    
    0.1435001068434015        0.1164523696647396    
    0.1524688635211141        0.1203034346501178    
    0.1614376201988267        0.1243637833380919    
    0.1704063768765393        0.1286294253953593    
    0.1793751335542519        0.1330962107043448    
    0.1883438902319645        0.1377598380763342    
    0.1973126469096771        0.1426158638344928    
    0.2062814035873897        0.1476597102102337    
    0.2152501602651022        0.1528866735013359    
    0.2242189169428148        0.1582919319457438    
    0.2331876736205274        0.1638705532710076    
    0.2421564302982400        0.1696175018857929    
    0.2511251869759527        0.1755276456866642    
    0.2600939436536652        0.1815957624603874    
    0.2690627003313778        0.1878165458691463    
    0.2780314570090904        0.1941846110132681    
    0.2870002136868030        0.2006944995731917    
    0.2959689703645156        0.2073406845393792    
    0.3049377270422282        0.2141175745455779    
    0.3139064837199408        0.2210195178272083    
    0.3228752403976534        0.2280408058325665    
    0.3318439970753660        0.2351756765199358    
    0.3408127537530786        0.2424183173785147    
    0.3497815104307911        0.2497628682152227    
    0.3587502671085038        0.2572034237528953    
    0.3677190237862163        0.2647340360880773    
    0.3766877804639289        0.2723487170585303    
    0.3856565371416416        0.2800414405716748    
    0.3946252938193541        0.2878061449454620    
    0.4035940504970667        0.2956367353126594    
    0.4125628071747793        0.3035270861381635    
    0.4215315638524919        0.3114710438968680    
    0.4305003205302045        0.3194624299567257    
    0.4394690772079171        0.3274950437080964    
    0.4484378338856297        0.3355626659762508    
    0.4574065905633423        0.3436590627491213    
    0.4663753472410549        0.3517779892470813    
    0.4753441039187675        0.3599131943558093    
    0.4843128605964801        0.3680584254372174    
    0.4932816172741927        0.3762074335270871    
    0.5022503739519053        0.3843539789215594    
    0.5112191306296179        0.3924918371480582    
    0.5201878873073305        0.4006148053096849    
    0.5291566439850430        0.4087167087856841    
    0.5381254006627556        0.4167914082643960    
    0.5470941573404682        0.4248328070791662    
    0.5560629140181809        0.4328348588121711    
    0.5650316706958934        0.4407915751260597    
    0.5740004273736060        0.4486970337787619    
    0.5829691840513186        0.4565453867728861    
    0.5919379407290312        0.4643308685878753    
    0.6009066974067439        0.4720478044404461    
    0.6098754540844564        0.4796906185170399    
    0.6188442107621690        0.4872538421208944    
    0.6278129674398816        0.4947321216760257    
    0.6367817241175942        0.5021202265308347    
    0.6457504807953067        0.5094130565052819    
    0.6547192374730194        0.5166056491274986    
    0.6636879941507320        0.5236931865083666    
    0.6726567508284446        0.5306710018059106    
    0.6816255075061571        0.5375345852352854    
    0.6905942641838697        0.5442795895846249    
    0.6995630208615823        0.5509018352020009    
    0.7085317775392950        0.5573973144241211    
    0.7175005342170075        0.5637621954231086    
    0.7264692908947201        0.5699928254536888    
    0.7354380475724327        0.5760857334892189    
    0.7444068042501453        0.5820376322411851    
    0.7533755609278578        0.5878454195629987    
    0.7623443176055705        0.5935061792449708    
    0.7713130742832831        0.5990171812132651    
    0.7802818309609957        0.6043758811512255    
    0.7892505876387083        0.6095799195668233    
    0.7982193443164208        0.6146271203347995    
    0.8071881009941334        0.6195154887465789    
    0.8161568576718461        0.6242432091049394    
    0.8251256143495587        0.6288086419038238    
    0.8340943710272712        0.6332103206365157    
    0.8430631277049838        0.6374469482776242    
    0.8520318843826964        0.6415173934859554    
    0.8610006410604090        0.6454206865763874    
    0.8699693977381217        0.6491560153092726    
    0.8789381544158342        0.6527227205457167    
    0.8879069110935468        0.6561202918163658    
    0.8968756677712594        0.6593483628499827    
    0.9058444244489720        0.6624067071062987    
    0.9148131811266846        0.6652952333552560    
    0.9237819378043972        0.6680139813419330    
    0.9327506944821098        0.6705631175732076    
    0.9417194511598224        0.6729429312585041    
    0.9506882078375349        0.6751538304329493    
    0.9596569645152475        0.6771963382868936    
    0.9686257211929602        0.6790710897210789    
    0.9775944778706728        0.6807788281418974    
    0.9865632345483853        0.6823204023022795    
    0.9955319912260979        0.6836967613444667    
     1.004500747903811        0.6849089558544368    
     1.013469504581523        0.6859581352412143    
     1.022438261259236        0.6868455451852534    
     1.031407017936948        0.6875725258898499    
     1.040375774614661        0.6881405105312570    
     1.049344531292373        0.6885510238826648    
     1.058313287970086        0.6888056810834000    
     1.067282044647799        0.6889061865214128    
     1.076250801325511        0.6888543327943886    
     1.085219558003224        0.6886519997127195    
     1.094188314680936        0.6883011533061083    
     1.103157071358649        0.6878038447948501    
     1.112125828036362        0.6871622094867735    
     1.121094584714074        0.6863784655615045    
     1.130063341391787        0.6854549127050995    
     1.139032098069499        0.6843939305601342    
     1.148000854747212        0.6831979769590547    
     1.156969611424925        0.6818695859118813    
     1.165938368102637        0.6804113653232033    
     1.174907124780350        0.6788259944177164    
     1.183875881458062        0.6771162208582553    
     1.192844638135775        0.6752848575453217    
     1.201813394813488        0.6733347790923759    
     1.210782151491200        0.6712689179765787    
     1.219750908168913        0.6690902603701709    
     1.228719664846625        0.6668018416631466    
     1.237688421524338        0.6644067436593578    
     1.246657178202051        0.6619081211810911    
     1.255625934879763        0.6593090889221221    
     1.264594691557476        0.6566128294283011    
     1.273563448235188        0.6538225476220170    
     1.282532204912901        0.6509414655401369    
     1.291500961590613        0.6479728164123898    
     1.300469718268326        0.6449198386849372    
     1.309438474946039        0.6417857700356562    
     1.318407231623751        0.6385738414291012    
     1.327375988301464        0.6352872712598925    
     1.336344744979177        0.6319292596334122    
     1.345313501656889        0.6285029828321793    
     1.354282258334602        0.6250115880150897    
     1.363251015012314        0.6214581881949311    
     1.372219771690027        0.6178458575371603    
     1.381188528367739        0.6141776270199804    
     1.390157285045452        0.6104564804919406    
     1.399126041723165        0.6066853511581340    
     1.408094798400877        0.6028671185237853    
     1.417063555078590        0.5990046058239920    
     1.426032311756303        0.5951005779557426    
     1.435001068434015        0.5911577399211653    
     1.443969825111728        0.5871787357920436    
     1.452938581789440        0.5831661481231896    
     1.461907338467153        0.5791224982802922    
     1.470876095144865        0.5750502407186964    
     1.479844851822578        0.5709517526024542    
     1.488813608500291        0.5668293313200725    
     1.497782365178003        0.5626851966605607    
     1.506751121855716        0.5585214926989738    
     1.515719878533428        0.5543402898110963    
     1.524688635211141        0.5501435865731191    
     1.533657391888854        0.5459333116436470    
     1.542626148566566        0.5417113256031967    
     1.551594905244279        0.5374794227572507    
     1.560563661921991        0.5332393329030269    
     1.569532418599704        0.5289927230607767    
     1.578501175277417        0.5247411991703081    
     1.587469931955129        0.5204863077533929    
     1.596438688632842        0.5162295375426502    
     1.605407445310554        0.5119723210774685    
     1.614376201988267        0.5077160362674735    
     1.623344958665980        0.5034620079240266    
     1.632313715343692        0.4992115092601836    
     1.641282472021405        0.4949657633595353    
     1.650251228699117        0.4907259446143112    
     1.659219985376830        0.4864931801331077    
     1.668188742054542        0.4822685511185892    
     1.677157498732255        0.4780530942154824    
     1.686126255409968        0.4738478028291893    
     1.695095012087680        0.4696536284153131    
     1.704063768765393        0.4654714817404053    
     1.713032525443105        0.4613022341142210    
     1.722001282120818        0.4571467185937773    
     1.730970038798531        0.4530057311595034    
     1.739938795476243        0.4488800318637766    
     1.748907552153956        0.4447703459521352    
     1.757876308831668        0.4406773649574732    
     1.766845065509381        0.4366017477675137    
     1.775813822187094        0.4325441216658799    
     1.784782578864806        0.4285050833470693    
     1.793751335542519        0.4244851999056721    
     1.802720092220231        0.4204850098001510    
     1.811688848897944        0.4165050237915340    
     1.820657605575656        0.4125457258573671    
     1.829626362253369        0.4086075740812837    
     1.838595118931082        0.4046910015185624    
     1.847563875608794        0.4007964170380423    
     1.856532632286507        0.3969242061407858    
     1.865501388964220        0.3930747317558752    
     1.874470145641932        0.3892483350137466    
     1.883438902319645        0.3854453359974599    
     1.892407658997357        0.3816660344723237    
     1.901376415675070        0.3779107105942896    
     1.910345172352782        0.3741796255975386    
     1.919313929030495        0.3704730224616879    
     1.928282685708208        0.3667911265590482    
     1.937251442385920        0.3631341462823681    
     1.946220199063633        0.3595022736535017    
     1.955188955741346        0.3558956849134354    
     1.964157712419058        0.3523145410941194    
     1.973126469096771        0.3487589885725380    
     1.982095225774483        0.3452291596074649    
     1.991063982452196        0.3417251728593371    
     2.000032739129908        0.3382471338936874    
     2.009001495807621        0.3347951356685728    
     2.017970252485334        0.3313692590064249    
     2.026939009163046        0.3279695730507577    
     2.035907765840759        0.3245961357081551    
     2.044876522518472        0.3212489940759554    
     2.053845279196184        0.3179281848560522    
     2.062814035873897        0.3146337347552217    
     2.071782792551609        0.3113656608723713    
     2.080751549229322        0.3081239710731195    
     2.089720305907035        0.3049086643520855    
     2.098689062584747        0.3017197311832774    
     2.107657819262460        0.2985571538589545    
     2.116626575940172        0.2954209068173280    
     2.125595332617885        0.2923109569594560    
     2.134564089295597        0.2892272639557011    
     2.143532845973310        0.2861697805420707    
     2.152501602651022        0.2831384528067835    
     2.161470359328735        0.2801332204673855    
     2.170439116006448        0.2771540171387387    
     2.179407872684160        0.2742007705921770    
     2.188376629361873        0.2712734030061341    
     2.197345386039586        0.2683718312085311    
     2.206314142717298        0.2654959669111991    
     2.215282899395011        0.2626457169366130    
     2.224251656072723        0.2598209834371891    
     2.233220412750436        0.2570216641074095    
     2.242189169428149        0.2542476523890024    
     2.251157926105861        0.2514988376694267    
     2.260126682783574        0.2487751054738722    
     2.269095439461286        0.2460763376510073    
     2.278064196138999        0.2434024125526655    
     2.287032952816711        0.2407532052076885    
     2.296001709494424        0.2381285874901013    
     2.304970466172137        0.2355284282818200    
     2.313939222849849        0.2329525936300533    
     2.322907979527562        0.2304009468995808    
     2.331876736205274        0.2278733489200619    
     2.340845492882987        0.2253696581285332    
     2.349814249560700        0.2228897307072465    
     2.358783006238412        0.2204334207169837    
     2.367751762916125        0.2180005802259943    
     2.376720519593837        0.2155910594346751    
     2.385689276271550        0.2132047067961308    
     2.394658032949263        0.2108413691327239    
     2.403626789626975        0.2085008917487355    
     2.412595546304688        0.2061831185392517    
     2.421564302982401        0.2038878920953675    
     2.430533059660113        0.2016150538058310    
     2.439501816337826        0.1993644439552078    
     2.448470573015538        0.1971359018186721    
     2.457439329693251        0.1949292657535127    
     2.466408086370963        0.1927443732874405    
     2.475376843048676        0.1905810612037846    
     2.484345599726388        0.1884391656236646    
     2.493314356404101        0.1863185220852076    
     2.502283113081814        0.1842189656199043    
     2.511251869759526        0.1821403308261623    
     2.520220626437239        0.1800824519401497    
     2.529189383114951        0.1780451629039900    
     2.538158139792664        0.1760282974313765    
     2.547126896470377        0.1740316890706808    
     2.556095653148089        0.1720551712656264    
     2.565064409825802        0.1700985774135907    
     2.574033166503515        0.1681617409215953    
     2.583001923181227        0.1662444952600597    
     2.591970679858940        0.1643466740143718    
     2.600939436536652        0.1624681109343430    
     2.609908193214365        0.1606086399816080    
     2.618876949892078        0.1587680953750281    
     2.627845706569790        0.1569463116341591    
     2.636814463247503        0.1551431236208400    
     2.645783219925215        0.1533583665789638    
     2.654751976602928        0.1515918761724817    
     2.663720733280640        0.1498434885217025    
     2.672689489958353        0.1481130402379348    
     2.681658246636065        0.1464003684565338    
     2.690627003313778        0.1447053108683996    
     2.699595759991491        0.1430277057499797    
     2.708564516669203        0.1413673919918285    
     2.717533273346916        0.1397242091257742    
     2.726502030024629        0.1380979973507382    
     2.735470786702341        0.1364885975572571    
     2.744439543380054        0.1348958513507537    
     2.753408300057766        0.1333196010736025    
     2.762377056735479        0.1317596898260333    
     2.771345813413192        0.1302159614859151    
     2.780314570090904        0.1286882607274638    
     2.789283326768617        0.1271764330389135    
     2.798252083446329        0.1256803247391908    
     2.807220840124042        0.1241997829936284    
     2.816189596801754        0.1227346558287587    
     2.825158353479467        0.1212847921462184    
     2.834127110157180        0.1198500417358020    
     2.843095866834892        0.1184302552876950    
     2.852064623512605        0.1170252844039189    
     2.861033380190317        0.1156349816090202    
     2.870002136868030        0.1142592003600295    
     2.878970893545743        0.1128977950557223    
     2.887939650223455        0.1115506210452067    
     2.896908406901168        0.1102175346358629    
     2.905877163578880        0.1088983931006619    
     2.914845920256593        0.1075930546848842    
     2.923814676934306        0.1063013786122628    
     2.932783433612018        0.1050232250905724    
     2.941752190289731        0.1037584553166835    
     2.950720946967444        0.1025069314811044    
     2.959689703645156        0.1012685167720253    
     2.968658460322869        0.1000430753788873    
     2.977627217000581        0.9883047249549168E-01
     2.986595973678294        0.9763057432266380E-01
     2.995564730356006        0.9644324807049162E-01
     3.004533487033719        0.9526836196015079E-01
     3.013502243711431        0.9410578522533186E-01
     3.022471000389144        0.9295538811328506E-01
     3.031439757066857        0.9181704188549218E-01
     3.040408513744569        0.9069061881798370E-01
     3.049377270422282        0.8957599220131021E-01
     3.058346027099994        0.8847303634018058E-01
     3.067314783777707        0.8738162655277983E-01
     3.076283540455420        0.8630163916977779E-01
     3.085252297133132        0.8523295153303848E-01
     3.094221053810845        0.8417544199404287E-01
     3.103189810488558        0.8312898991203301E-01
     3.112158567166270        0.8209347565189079E-01
     3.121127323843983        0.8106878058175954E-01
     3.130096080521695        0.8005478707041724E-01
     3.139064837199408        0.7905137848441342E-01
     3.148033593877121        0.7805843918497869E-01
     3.157002350554833        0.7707585452471345E-01
     3.165971107232546        0.7610351084406825E-01
     3.174939863910258        0.7514129546762353E-01
     3.183908620587971        0.7418909670017571E-01
     3.192877377265683        0.7324680382264129E-01
     3.201846133943396        0.7231430708778501E-01
     3.210814890621108        0.7139149771578079E-01
     3.219783647298821        0.7047826788961424E-01
     3.228752403976534        0.6957451075033420E-01
     3.237721160654246        0.6868012039216057E-01
     3.246689917331959        0.6779499185745667E-01
     3.255658674009672        0.6691902113157289E-01
     3.264627430687384        0.6605210513757045E-01
     3.273596187365097        0.6519414173082849E-01
     3.282564944042810        0.6434502969354537E-01
     3.291533700720522        0.6350466872914004E-01
     3.300502457398235        0.6267295945655592E-01
     3.309471214075947        0.6184980340447869E-01
     3.318439970753660        0.6103510300547170E-01
     3.327408727431372        0.6022876159003307E-01
     3.336377484109085        0.5943068338058231E-01
     3.345346240786798        0.5864077348538281E-01
     3.354314997464510        0.5785893789239930E-01
     3.363283754142223        0.5708508346310152E-01
     3.372252510819935        0.5631911792622597E-01
     3.381221267497648        0.5556094987151065E-01
     3.390190024175360        0.5481048874327088E-01
     3.399158780853073        0.5406764483382759E-01
     3.408127537530786        0.5333232927743245E-01
     3.417096294208498        0.5260445404468606E-01
     3.426065050886211        0.5188393193572022E-01
     3.435033807563924        0.5117067657092571E-01
     3.444002564241636        0.5046460238233750E-01
     3.452971320919349        0.4976562460858348E-01
     3.461940077597061        0.4907365929128088E-01
     3.470908834274774        0.4838862327066387E-01
     3.479877590952487        0.4771043418010185E-01
     3.488846347630199        0.4703901043929345E-01
     3.497815104307912        0.4637427124580050E-01
     3.506783860985624        0.4571613656666404E-01
     3.515752617663337        0.4506452713174689E-01
     3.524721374341049        0.4441936442770945E-01
     3.533690131018762        0.4378057069157068E-01
     3.542658887696474        0.4314806890393130E-01
     3.551627644374187        0.4252178278227131E-01
     3.560596401051900        0.4190163677434157E-01
     3.569565157729612        0.4128755605154626E-01
     3.578533914407325        0.4067946650232614E-01
     3.587502671085038        0.4007729472555018E-01
     3.596471427762750        0.3948096802391972E-01
     3.605440184440463        0.3889041439738473E-01
     3.614408941118175        0.3830556253657429E-01
     3.623377697795888        0.3772634181624284E-01
     3.632346454473601        0.3715268228873222E-01
     3.641315211151313        0.3658451467745349E-01
     3.650283967829026        0.3602177037038535E-01
     3.659252724506739        0.3546438141359535E-01
     3.668221481184451        0.3491228050478141E-01
     3.677190237862164        0.3436540098683512E-01
     3.686158994539876        0.3382367684143018E-01
     3.695127751217589        0.3328704268263322E-01
     3.704096507895301        0.3275543375054148E-01
     3.713065264573014        0.3222878590494578E-01
     3.722034021250726        0.3170703561902017E-01
     3.731002777928439        0.3119011997304035E-01
     3.739971534606152        0.3067797664812869E-01
     3.748940291283864        0.3017054392002994E-01
     3.757909047961577        0.2966776065291599E-01
     3.766877804639289        0.2916956629322040E-01
     3.775846561317002        0.2867590086350474E-01
     3.784815317994715        0.2818670495635560E-01
     3.793784074672427        0.2770191972831362E-01
     3.802752831350140        0.2722148689383535E-01
     3.811721588027853        0.2674534871928701E-01
     3.820690344705565        0.2627344801697282E-01
     3.829659101383278        0.2580572813919480E-01
     3.838627858060990        0.2534213297234906E-01
     3.847596614738703        0.2488260693105445E-01
     3.856565371416415        0.2442709495231643E-01
     3.865534128094128        0.2397554248972579E-01
     3.874502884771841        0.2352789550769241E-01
     3.883471641449553        0.2308410047571452E-01
     3.892440398127266        0.2264410436268298E-01
     3.901409154804978        0.2220785463122167E-01
     3.910377911482691        0.2177529923206399E-01
     3.919346668160403        0.2134638659846459E-01
     3.928315424838116        0.2092106564064817E-01
     3.937284181515829        0.2049928574029347E-01
     3.946252938193541        0.2008099674505470E-01
     3.955221694871254        0.1966614896311842E-01
     3.964190451548967        0.1925469315779733E-01
     3.973159208226679        0.1884658054216095E-01
     3.982127964904392        0.1844176277370172E-01
     3.991096721582104        0.1804019194903873E-01
     4.000065478259817        0.1764182059865702E-01
     4.009034234937530        0.1724660168168429E-01
     4.018002991615242        0.1685448858070314E-01
     4.026971748292954        0.1646543509660050E-01
     4.035940504970667        0.1607939544345281E-01
     4.044909261648380        0.1569632424344819E-01
     4.053878018326093        0.1531617652184373E-01
     4.062846775003805        0.1493890770195973E-01
     4.071815531681517        0.1456447360021000E-01
     4.080784288359230        0.1419283042116710E-01
     4.089753045036943        0.1382393475266474E-01
     4.098721801714656        0.1345774356093436E-01
     4.107690558392368        0.1309421418577841E-01
     4.116659315070081        0.1273330433577760E-01
     4.125628071747793        0.1237497208353534E-01
     4.134596828425506        0.1201917586095474E-01
     4.143565585103218        0.1166587445455265E-01
     4.152534341780931        0.1131502700080689E-01
     4.161503098458644        0.1096659298153870E-01
     4.170471855136356        0.1062053221932895E-01
     4.179440611814069        0.1027680487296872E-01
     4.188409368491781        0.9935371432944264E-02
     4.197378125169494        0.9596192716954315E-02
     4.206346881847207        0.9259229865462109E-02
     4.215315638524920        0.8924444337279781E-02
     4.224284395202631        0.8591797905186438E-02
     4.233253151880344        0.8261252651578208E-02
     4.242221908558057        0.7932770964151743E-02
     4.251190665235770        0.7606315531619012E-02
     4.260159421913482        0.7281849339455065E-02
     4.269128178591195        0.6959335665676437E-02
     4.278096935268907        0.6638738076652696E-02
     4.287065691946620        0.6320020422947691E-02
     4.296034448624333        0.6003146835192869E-02
     4.305003205302045        0.5688081719990516E-02
     4.313971961979758        0.5374789755848351E-02
     4.322940718657470        0.5063235889143989E-02
     4.331909475335183        0.4753385330119167E-02
     4.340878232012895        0.4445203548903531E-02
     4.349846988690608        0.4138656271568486E-02
     4.358815745368321        0.3833709476209929E-02
     4.367784502046034        0.3530329389059308E-02
     4.376753258723745        0.3228482480623981E-02
     4.385722015401458        0.2928135461855073E-02
     4.394690772079171        0.2629255280344475E-02
     4.403659528756884        0.2331809116548620E-02
     4.412628285434597        0.2035764380039861E-02
     4.421597042112309        0.1741088705785000E-02
     4.430565798790021        0.1447749950451267E-02
     4.439534555467734        0.1155716188738111E-02
     4.448503312145447        0.8649557097355702E-03
     4.457472068823159        0.5754370133083895E-03
     4.466440825500872        0.2871288065064447E-03
     4.475409582178584         0.000000000000000    
  0  3  2  0  0.000000   #orbital l, n, z, is_polarized, population
 500    0.8968756677712594E-02     4.475409582178584     # npts, delta, cutoff
     0.000000000000000        0.8217904430623721E-01
    0.8968756677712594E-02    0.8229311178523431E-01
    0.1793751335542519E-01    0.8263762427891586E-01
    0.2690627003313778E-01    0.8321130834343628E-01
    0.3587502671085038E-01    0.8401340970509195E-01
    0.4484378338856297E-01    0.8504287663204305E-01
    0.5381254006627556E-01    0.8629836368021507E-01
    0.6278129674398816E-01    0.8777823657706210E-01
    0.7175005342170075E-01    0.8948057805539365E-01
    0.8071881009941334E-01    0.9140319454179985E-01
    0.8968756677712594E-01    0.9354362360788997E-01
    0.9865632345483853E-01    0.9589914209068461E-01
    0.1076250801325511        0.9846677478765059E-01
    0.1165938368102637        0.1012433036326675    
    0.1255625934879763        0.1042252772614292    