<?xml version="1.0" encoding="UTF-8" ?>
<psml version="1.1" energy_unit="hartree" length_unit="bohr"
 uuid="e5e54170-be44-11e7-41cf-580a77bd0847"
 xmlns="http://esl.cecam.org/PSML/ns/1.1">
<provenance creator="ONCVPSP-3.3.0+psml-3.3.0-73 (scalar-relativistic)"
 date="2017-10-31">
<annotation action="semilocal-pseudopotential-generation"
 action-cont="projectors-generation" />
<input-file name="oncvpsp-input">
<![CDATA[# atsym z nc nv iexc psfile
Mo 42 6 4 4 upf
# n l f
1 0 2.0
2 0 2.0
2 1 6.0
3 0 2.0
3 1 6.0
3 2 10.0
4 0 2.0
4 1 6.0
4 2 5.0
5 0 1.0
# lmax
2
# l rc ep ncon nbas qcut
0 1.45 0.0 4 7 8.2
1 1.45 0.0 4 7 8.8
2 1.35 0.0 4 7 8.8
# lloc lpopt rc5 dvloc0
4 5 1.25 0.0
# l nproj debl
0 2 1.0
1 2 2.0
2 2 2.0
# icmod fcfact
3 3 1.3
# epsh1 epsh2 depsh
-12.0 12.0 0.02
# rlmax drl
6.0 0.01
 0
]]>
</input-file>
</provenance>
<pseudo-atom-spec atomic-label="Mo" atomic-number="42" z-pseudo="14"
 flavor="Hamann&apos;s oncvpsp" relativity="scalar" spin-dft="no"
 core-corrections="yes">
<annotation pseudo-energy="-68.0687125305" />
<exchange-correlation>
<annotation oncvpsp-xc-code="4" oncvpsp-xc-type="GGA -- Perdew-Burke-Ernzerhof" />
<libxc-info number-of-functionals="2">
<functional name="Perdew, Burke &amp; Ernzerhof (GGA)" type="exchange" id="101" />
<functional name="Perdew, Burke &amp; Ernzerhof (GGA)" type="correlation"
 id="130" />
</libxc-info>
</exchange-correlation>
<valence-configuration total-valence-charge="14">
<shell n="4" l="s" occupation="2" />
<shell n="4" l="p" occupation="6" />
<shell n="4" l="d" occupation="5" />
<shell n="5" l="s" occupation="1" />
</valence-configuration>
</pseudo-atom-spec>
<grid npts="457">
<annotation type="sampled from oncvpsp log grid"
 recipe="r(i:1..N) = r1*exp(a*(i-1)) + r=0; resampled"
 recipe-cont="r1: scale; a: step" scale="0.119047619048E-04"
 step="0.119285708653E-01" delta="0.500000000000E-02" rmax="44.1174669210" />
<grid-data>
  0.000000000000E+00  5.037795722915E-03  1.006260160451E-02  1.509550699367E-02
  2.009925702039E-02  2.521214181819E-02  3.051391565380E-02  3.563236135451E-02
  4.111599021390E-02  4.632504811410E-02  5.157514903245E-02  5.673938074985E-02
  6.242070819516E-02  6.785662873951E-02  7.289124265956E-02  7.829939911767E-02
  8.410881305485E-02  8.927792067056E-02  9.476470811758E-02  1.005886991673E-01
  1.067706174709E-01  1.119885971355E-01  1.174615843333E-01  1.232020415203E-01
  1.292230402044E-01  1.355382907102E-01  1.421621733986E-01  1.473416713561E-01
  1.527098777334E-01  1.582736678816E-01  1.640401676468E-01  1.700167624959E-01
  1.762111069761E-01  1.826311345182E-01  1.892850675976E-01  1.961814282649E-01
  2.033290490610E-01  2.107370843290E-01  2.158251204930E-01  2.210360022022E-01
  2.263726954394E-01  2.318382377981E-01  2.374357402114E-01  2.431683887231E-01
  2.490394463004E-01  2.550522546919E-01  2.612102363292E-01  2.675168962751E-01
  2.739758242188E-01  2.805906965187E-01  2.873652782955E-01  2.943034255747E-01
  3.014090874817E-01  3.086863084899E-01  3.161392307221E-01  3.237720963086E-01
  3.315892498019E-01  3.395951406491E-01  3.477943257249E-01  3.561914719253E-01
  3.647913588234E-01  3.735988813908E-01  3.826190527831E-01  3.918570071935E-01
  4.013180027752E-01  4.110074246342E-01  4.209307878946E-01  4.259819573493E-01
  4.310937408375E-01  4.362668657276E-01  4.415020681163E-01  4.468000929337E-01
  4.521616940489E-01  4.575876343775E-01  4.630786859900E-01  4.686356302219E-01
  4.742592577846E-01  4.799503688780E-01  4.857097733045E-01  4.915382905842E-01
  4.974367500712E-01  5.034059910720E-01  5.094468629649E-01  5.155602253205E-01
  5.217469480243E-01  5.280079114006E-01  5.343440063374E-01  5.407561344135E-01
  5.472452080264E-01  5.538121505228E-01  5.604578963290E-01  5.671833910850E-01
  5.739895917780E-01  5.808774668793E-01  5.878479964819E-01  5.949021724397E-01
  6.020409985089E-01  6.092654904910E-01  6.165766763769E-01  6.239755964935E-01
  6.314633036514E-01  6.390408632952E-01  6.467093536547E-01  6.544698658986E-01
  6.623235042894E-01  6.702713863409E-01  6.783146429769E-01  6.864544186927E-01
  6.946918717170E-01  7.030281741776E-01  7.114645122677E-01  7.200020864149E-01
  7.286421114519E-01  7.373858167893E-01  7.462344465908E-01  7.551892599499E-01
  7.642515310693E-01  7.734225494421E-01  7.827036200354E-01  7.920960634759E-01
  8.016012162376E-01  8.112204308324E-01  8.209550760024E-01  8.308065369144E-01
  8.407762153574E-01  8.508655299417E-01  8.610759163010E-01  8.714088272966E-01
  8.818657332242E-01  8.924481220229E-01  9.031574994871E-01  9.139953894810E-01
  9.249633341547E-01  9.360628941646E-01  9.472956488946E-01  9.586631966813E-01
  9.701671550415E-01  9.818091609020E-01  9.935908708328E-01  1.005513961283E+00
  1.017580128818E+00  1.029791090364E+00  1.042148583448E+00  1.054654366450E+00
  1.067310218847E+00  1.080117941473E+00  1.093079356771E+00  1.106196309052E+00
  1.119470664761E+00  1.132904312738E+00  1.146499164491E+00  1.160257154465E+00
  1.174180240318E+00  1.188270403202E+00  1.202529648041E+00  1.216960003817E+00
  1.231563523863E+00  1.246342286149E+00  1.261298393583E+00  1.276433974306E+00
  1.291751181998E+00  1.307252196182E+00  1.322939222536E+00  1.338814493206E+00
  1.354880267125E+00  1.371138830330E+00  1.387592496294E+00  1.404243606250E+00
  1.421094529525E+00  1.438147663879E+00  1.455405435846E+00  1.472870301076E+00
  1.490544744689E+00  1.508431281625E+00  1.526532457004E+00  1.544850846488E+00
  1.563389056646E+00  1.582149725326E+00  1.601135522030E+00  1.620349148294E+00
  1.639793338074E+00  1.659470858131E+00  1.679384508428E+00  1.699537122529E+00
  1.719931568000E+00  1.740570746816E+00  1.761457595778E+00  1.782595086927E+00
  1.803986227970E+00  1.825634062706E+00  1.847541671458E+00  1.869712171516E+00
  1.892148717574E+00  1.914854502185E+00  1.937832756211E+00  1.961086749286E+00
  1.984619790277E+00  2.008435227760E+00  2.032536450493E+00  2.056926887899E+00
  2.081610010554E+00  2.106589330681E+00  2.131868402649E+00  2.157450823481E+00
  2.183340233362E+00  2.209540316163E+00  2.236054799957E+00  2.262887457556E+00
  2.290042107047E+00  2.317522612331E+00  2.345332883679E+00  2.373476878284E+00
  2.401958600823E+00  2.430782104033E+00  2.459951489281E+00  2.489470907153E+00
  2.519344558039E+00  2.549576692735E+00  2.580171613048E+00  2.611133672404E+00
  2.642467276473E+00  2.674176883791E+00  2.706267006396E+00  2.738742210473E+00
  2.771607116999E+00  2.804866402403E+00  2.838524799232E+00  2.872587096822E+00
  2.907058141984E+00  2.941942839688E+00  2.977246153764E+00  3.012973107610E+00
  3.049128784901E+00  3.085718330320E+00  3.122746950283E+00  3.160219913687E+00
  3.198142552651E+00  3.236520263283E+00  3.275358506442E+00  3.314662808520E+00
  3.354438762222E+00  3.394692027369E+00  3.435428331697E+00  3.476653471677E+00
  3.518373313337E+00  3.560593793097E+00  3.603320918615E+00  3.646560769638E+00
  3.690319498874E+00  3.734603332860E+00  3.779418572855E+00  3.824771595729E+00
  3.870668854878E+00  3.917116881136E+00  3.964122283710E+00  4.011691751114E+00
  4.059832052128E+00  4.108550036753E+00  4.157852637194E+00  4.207746868840E+00
  4.258239831267E+00  4.309338709242E+00  4.361050773753E+00  4.413383383038E+00
  4.466343983634E+00  4.519940111438E+00  4.574179392775E+00  4.629069545488E+00
  4.684618380034E+00  4.740833800595E+00  4.797723806202E+00  4.855296491876E+00
  4.913560049779E+00  4.972522770376E+00  5.032193043620E+00  5.092579360144E+00
  5.153690312466E+00  5.215534596215E+00  5.278121011370E+00  5.341458463506E+00
  5.405555965068E+00  5.470422636649E+00  5.536067708289E+00  5.602500520788E+00
  5.669730527038E+00  5.737767293362E+00  5.806620500883E+00  5.876299946893E+00
  5.946815546256E+00  6.018177332811E+00  6.090395460805E+00  6.163480206334E+00
  6.237441968810E+00  6.312291272436E+00  6.388038767705E+00  6.464695232918E+00
  6.542271575713E+00  6.620778834621E+00  6.700228180637E+00  6.780630918805E+00
  6.861998489830E+00  6.944342471708E+00  7.027674581369E+00  7.112006676345E+00
  7.197350756461E+00  7.283718965539E+00  7.371123593125E+00  7.459577076243E+00
  7.549092001158E+00  7.639681105172E+00  7.731357278434E+00  7.824133565775E+00
  7.918023168564E+00  8.013039446587E+00  8.109195919946E+00  8.206506270985E+00
  8.304984346237E+00  8.404644158392E+00  8.505499888293E+00  8.607565886952E+00
  8.710856677596E+00  8.815386957727E+00  8.921171601219E+00  9.028225660434E+00
  9.136564368359E+00  9.246203140780E+00  9.357157578469E+00  9.469443469411E+00
  9.583076791044E+00  9.698073712536E+00  9.814450597086E+00  9.932224004252E+00
  1.005141069230E+01  1.017202762061E+01  1.029409195206E+01  1.041762105548E+01
  1.054263250815E+01  1.066914409825E+01  1.079717382742E+01  1.092673991335E+01
  1.105786079231E+01  1.119055512182E+01  1.132484178328E+01  1.146073988468E+01
  1.159826876330E+01  1.173744798846E+01  1.187829736432E+01  1.202083693269E+01
  1.216508697588E+01  1.231106801960E+01  1.245880083583E+01  1.260830644586E+01
  1.275960612321E+01  1.291272139669E+01  1.306767405345E+01  1.322448614209E+01
  1.338317997580E+01  1.354377813551E+01  1.370630347313E+01  1.387077911481E+01
  1.403722846419E+01  1.420567520576E+01  1.437614330823E+01  1.454865702792E+01
  1.472324091226E+01  1.489991980321E+01  1.507871884085E+01  1.525966346694E+01
  1.544277942854E+01  1.562809278168E+01  1.581562989506E+01  1.600541745380E+01
  1.619748246325E+01  1.639185225281E+01  1.658855447984E+01  1.678761713360E+01
  1.698906853920E+01  1.719293736167E+01  1.739925261001E+01  1.760804364133E+01
  1.781934016503E+01  1.803317224701E+01  1.824957031397E+01  1.846856515774E+01
  1.869018793963E+01  1.891447019491E+01  1.914144383725E+01  1.937114116329E+01
  1.960359485725E+01  1.983883799554E+01  2.007690405149E+01  2.031782690011E+01
  2.056164082291E+01  2.080838051278E+01  2.105808107894E+01  2.131077805188E+01
  2.156650738851E+01  2.182530547717E+01  2.208720914289E+01  2.235225565261E+01
  2.262048272044E+01  2.289192851308E+01  2.316663165524E+01  2.344463123510E+01
  2.372596680993E+01  2.401067841164E+01  2.429880655258E+01  2.459039223122E+01
  2.488547693799E+01  2.518410266125E+01  2.548631189318E+01  2.579214763590E+01
  2.610165340753E+01  2.641487324842E+01  2.673185172740E+01  2.705263394813E+01
  2.737726555551E+01  2.770579274217E+01  2.803826225508E+01  2.837472140214E+01
  2.871521805897E+01  2.905980067567E+01  2.940851828378E+01  2.976142050319E+01
  3.011855754923E+01  3.047998023982E+01  3.084574000269E+01  3.121588888273E+01
  3.159047954932E+01  3.196956530391E+01  3.235320008756E+01  3.274143848861E+01
  3.313433575047E+01  3.353194777948E+01  3.393433115283E+01  3.434154312667E+01
  3.475364164419E+01  3.517068534392E+01  3.559273356804E+01  3.601984637086E+01
  3.645208452731E+01  3.688950954164E+01  3.733218365614E+01  3.778016986001E+01
  3.823353189833E+01  3.869233428111E+01  3.915664229248E+01  3.962652199999E+01
  4.010204026399E+01  4.058326474716E+01  4.107026392413E+01  4.156310709122E+01
  4.206186437631E+01  4.256660674883E+01  4.307740602981E+01  4.359433490217E+01
  4.411746692100E+01
</grid-data>
</grid>
<valence-charge total-charge="14" is-unscreening-charge="yes"
 rescaled-to-z-pseudo="no">
<radfunc>
<data npts="457">
  4.379102568215E-02  4.419743642945E-02  4.541314243124E-02  4.744405211940E-02
  5.027331126503E-02  5.400339830418E-02  5.877366295379E-02  6.425847892589E-02
  7.110368643710E-02  7.854594509616E-02  8.698613120291E-02  9.622186478457E-02
  1.074696420693E-01  1.193169915170E-01  1.312542846933E-01  1.451306579426E-01
  1.612771810014E-01  1.767476225933E-01  1.943310576252E-01  2.143343570256E-01
  2.371129581353E-01  2.576090339926E-01  2.803854197161E-01  3.057146933500E-01
  3.339048425384E-01  3.653041401647E-01  4.003066708861E-01  4.291894203575E-01
  4.605583992209E-01  4.946437814112E-01  5.316982349402E-01  5.719990648609E-01
  6.158505109307E-01  6.635861950583E-01  7.155717078082E-01  7.722073157150E-01
  8.339307615595E-01  9.012201176766E-01  9.494274081454E-01  1.000504841384E+00
  1.054627530716E+00  1.111980348006E+00  1.172758222022E+00  1.237166397790E+00
  1.305420646094E+00  1.377747410623E+00  1.454383878490E+00  1.535577957865E+00
  1.621588144324E+00  1.712683255220E+00  1.809142008918E+00  1.911252423127E+00
  2.019311003835E+00  2.133621693570E+00  2.254494544826E+00  2.382244081728E+00
  2.517187310234E+00  2.659641334711E+00  2.809920536515E+00  2.968333268479E+00
  3.135178018201E+00  3.310738992775E+00  3.495281078604E+00  3.689044132205E+00
  3.892236561991E+00  4.105028167186E+00  4.327542208603E+00  4.442468808892E+00
  4.559846697631E+00  4.679674186230E+00  4.801944904672E+00  4.926647463844E+00
  5.053765107061E+00  5.183275351403E+00  5.315149619579E+00  5.449352863204E+00
  5.585843178513E+00  5.724571415683E+00  5.865480783131E+00  6.008506448316E+00
  6.153575136772E+00  6.300604731316E+00  6.449503873560E+00  6.600171570108E+00
  6.752496806019E+00  6.906358168388E+00  7.061623483110E+00  7.218149468147E+00
  7.375781406891E+00  7.534352845421E+00  7.693685317745E+00  7.853588103321E+00
  8.013858021416E+00  8.174279267051E+00  8.334623293508E+00  8.494648746543E+00
  8.654101455612E+00  8.812714487534E+00  8.970208268111E+00  9.126290777264E+00
  9.280657823242E+00  9.432993401396E+00  9.582970142889E+00  9.730249858522E+00
  9.874484182579E+00  1.001531532125E+01  1.015237690975E+01  1.028529498165E+01
  1.041368905346E+01  1.053717332654E+01  1.065535800768E+01  1.076785074875E+01
  1.087425820470E+01  1.097418770778E+01  1.106724905506E+01  1.115305640428E+01
  1.123123027202E+01  1.130139962630E+01  1.136320406421E+01  1.141629606327E+01
  1.146034329351E+01  1.149503097541E+01  1.152006426713E+01  1.153517066253E+01
  1.154010237979E+01  1.153463871906E+01  1.151858836580E+01  1.149179161524E+01
  1.145412249260E+01  1.140549074240E+01  1.134584366018E+01  1.127516773937E+01
  1.119349010660E+01  1.110087971898E+01  1.099744829843E+01  1.088335097916E+01
  1.075878664681E+01  1.062399795006E+01  1.047927096855E+01  1.032493452451E+01
  1.016135912921E+01  9.988955559860E+00  9.808173067158E+00  9.619497218577E+00
  9.423447387776E+00  9.220573905653E+00  9.011454893889E+00  8.796692806969E+00
  8.576910713603E+00  8.352748353043E+00  8.124858005888E+00  7.893900222461E+00
  7.660539454656E+00  7.425439639128E+00  7.189259780801E+00  6.952649585875E+00
  6.716245192705E+00  6.480665047258E+00  6.246505967193E+00  6.014339435253E+00
  5.784708158606E+00  5.558122926439E+00  5.335059793328E+00  5.115957610539E+00
  4.901215922275E+00  4.691193026562E+00  4.486203518343E+00  4.286515785044E+00
  4.092351663071E+00  3.903887493761E+00  3.721254957906E+00  3.544543642459E+00
  3.373807912259E+00  3.209076219118E+00  3.050353826236E+00  2.897623397064E+00
  2.750847211190E+00  2.609968774031E+00  2.474914504584E+00  2.345595381156E+00
  2.221908547670E+00  2.103738872570E+00  1.990960453720E+00  1.883438063619E+00
  1.781028530199E+00  1.683582049351E+00  1.590943426153E+00  1.502953242586E+00
  1.419448950240E+00  1.340265887234E+00  1.265238219177E+00  1.194199804624E+00
  1.126984985949E+00  1.063429307096E+00  1.003370160031E+00  9.466473621287E-01
  8.931036670062E-01  8.425852116144E-01  7.949419025889E-01  7.500277450531E-01
  7.077011171876E-01  6.678249939750E-01  6.302671235798E-01  5.949001598623E-01
  5.616017543980E-01  5.302546116267E-01  5.007465102943E-01  4.729702945615E-01
  4.468238379268E-01  4.222099830083E-01  3.990364600892E-01  3.772157871882E-01
  3.566651542566E-01  3.373062939443E-01  3.190653412108E-01  3.018726838906E-01
  2.856628061576E-01  2.703741266683E-01  2.559488330034E-01  2.423327138730E-01
  2.294749904011E-01  2.173281476617E-01  2.058477675053E-01  1.949923635846E-01
  1.847232193708E-01  1.750042298387E-01  1.658017473951E-01  1.570844325298E-01
  1.488231095793E-01  1.409906279133E-01  1.335617287789E-01  1.265129179724E-01
  1.198223444455E-01  1.134696849019E-01  1.074360343891E-01  1.017038028483E-01
  9.625661754967E-02  9.107923130520E-02  8.615743632556E-02  8.147798356375E-02
  7.702850736876E-02  7.279745525731E-02  6.877402259997E-02  6.494809200889E-02
  6.131017720887E-02  5.785137117003E-02  5.456329827929E-02  5.143807032935E-02
  4.846824610597E-02  4.564679435922E-02  4.296705994942E-02  4.042273296492E-02
  3.800782061611E-02  3.571662171731E-02  3.354370357636E-02  3.148388111939E-02
  2.953219808629E-02  2.768391013999E-02  2.593446974018E-02  2.427951263930E-02
  2.271484586506E-02  2.123643706066E-02  1.984040505951E-02  1.852301157738E-02
  1.728065391114E-02  1.610985853498E-02  1.500727549832E-02  1.396967352669E-02
  1.299393573689E-02  1.207705588216E-02  1.121613504909E-02  1.040837873343E-02
  9.651094228235E-03  8.941688263696E-03  8.277664843844E-03  7.656623231682E-03
  7.076256039931E-03  6.534347390525E-03  6.028771111520E-03  5.557488945386E-03
  5.118548747684E-03  4.710082659748E-03  4.330305243269E-03  3.977511568505E-03
  3.650075251301E-03  3.346446437062E-03  3.065149732445E-03  2.804782087674E-03
  2.564010634184E-03  2.341570483713E-03  2.136262496006E-03  1.946951023093E-03
  1.772561638527E-03  1.612078860219E-03  1.464543875481E-03  1.329052276681E-03
  1.204751815566E-03  1.090840183787E-03  9.865628265532E-04  8.912107956636E-04
  8.041186474136E-04  7.246623900849E-04  6.522574849620E-04  5.863569040332E-04
  5.264492467941E-04  4.720569178717E-04  4.227343665492E-04  3.780663886942E-04
  3.376664910965E-04  3.011753177951E-04  2.682591376301E-04  2.386083919824E-04
  2.119363014621E-04  1.879775301708E-04  1.664869060749E-04  1.472381959969E-04
  1.300229337271E-04  1.146492997883E-04  1.009410514355E-04  8.873650152801E-05
  7.788754497754E-05  6.825873153585E-05  5.972638374209E-05  5.217775889640E-05
  4.551025396174E-05  3.963065231948E-05  3.445441131460E-05  2.990498952625E-05
  2.591321268761E-05  2.241667715958E-05  1.935918983584E-05  1.669024332547E-05
  1.436452522538E-05  1.234146026011E-05  1.058478403295E-05  9.062147102158E-06
  7.744748069439E-06  6.606994347048E-06  5.626189255171E-06  4.782244093322E-06
  4.057413828690E-06  3.436055050806E-06  2.904404855464E-06  2.450379341200E-06
  2.063390428452E-06  1.734179744225E-06  1.454668353051E-06  1.217821157600E-06
  1.017524838749E-06  8.484782545577E-07  7.060942696676E-07  5.864120404936E-07
  4.860188365513E-07  4.019805337182E-07  3.317799706375E-07  2.732624143192E-07
  2.245874348322E-07  1.841865414335E-07  1.507259832209E-07  1.230741661529E-07
  1.002731848512E-07  8.151401181795E-08  6.611492845775E-08  5.350282151928E-08
  4.319700523294E-08  3.479526352573E-08  2.796183827083E-08  2.241711863702E-08
  1.792881331840E-08  1.430441184241E-08  1.138476338066E-08  9.038621638823E-09
  7.158022601656E-09  5.654378283524E-09  4.455184312250E-09  3.501252281461E-09
  2.744389470283E-09  2.145458870739E-09  1.672761600269E-09  1.300691821545E-09
  1.008621350200E-09  7.799773029729E-10  6.014815170233E-10  4.625251419461E-10
  3.546558486951E-10  2.711585868762E-10  2.067138199216E-10  1.571197364720E-10
  1.190671299655E-10  8.995750544714E-11  6.775655628198E-11  5.087649266307E-11
  3.808182760107E-11  2.841420565821E-11  2.113249710813E-11  1.154435703936E-11
  8.517717333254E-12  6.263421868416E-12  4.590054633467E-12  3.352156977563E-12
  2.439571016231E-12  1.769160743132E-12  1.278402725708E-12  9.204416514057E-13
  6.602895080873E-13  4.719143953119E-13  3.360188520065E-13  2.383506284857E-13
  1.684230785067E-13  1.185494920665E-13  8.311712129346E-14  5.804350616248E-14
  4.037090891602E-14  2.796496603342E-14  1.929166985374E-14  1.325298526214E-14
  9.066179756992E-15  6.175608161164E-15  4.188492519355E-15  2.828367874403E-15
  1.901478616699E-15  1.272627705351E-15  8.478955886448E-16  5.623294942694E-16
  3.712128117578E-16  2.439015081538E-16  1.594927629701E-16  1.037952965312E-16
  6.722015131325E-17  4.331925909681E-17  2.777771990938E-17  1.772229880101E-17
  1.124929182547E-17  7.103715921355E-18  4.462460487555E-18  2.788459240670E-18
  1.733116397857E-18  1.071363232037E-18  6.586626629973E-19  4.026966714222E-19
  2.448233071181E-19  1.479986987780E-19  8.895365286697E-20  5.315454536290E-20
  3.157601893429E-20  1.864592483337E-20  1.094432401339E-20  6.384705887996E-21
  3.701756767711E-21  2.132836500452E-21  1.221116743405E-21  6.946618295640E-22
  3.926205420859E-22  0.000000000000E+00  0.000000000000E+00  0.000000000000E+00
  0.000000000000E+00
</data>
</radfunc>
</valence-charge>
<pseudocore-charge matching-radius="0.755189259950"
 number-of-continuous-derivatives="4">
<annotation model-charge-form="Teter function with specified parameters" />
<radfunc>
<data npts="290">
  3.422736065590E+01  3.422451322057E+01  3.421600158675E+01  3.420180228331E+01
  3.418206251046E+01  3.415611055256E+01  3.412304127107E+01  3.408518253998E+01
  3.403817653720E+01  3.398737154818E+01  3.393012667481E+01  3.386793074135E+01
  3.379279863288E+01  3.371437211968E+01  3.363606816210E+01  3.354592527292E+01
  3.344219098430E+01  3.334392901426E+01  3.323354195565E+01  3.310957972576E+01
  3.297043120531E+01  3.284698389762E+01  3.271167573433E+01  3.256342202105E+01
  3.240105038089E+01  3.222329614255E+01  3.202879806809E+01  3.187106101312E+01
  3.170243091108E+01  3.152221989057E+01  3.132970654467E+01  3.112413590019E+01
  3.090471970891E+01  3.067063712259E+01  3.042103582114E+01  3.015503367176E+01
  2.987172100564E+01  2.957016360767E+01  2.935851851533E+01  2.913805343615E+01
  2.890847880226E+01  2.866950343981E+01  2.842083551370E+01  2.816218358854E+01
  2.789325781393E+01  2.761377124263E+01  2.732344129012E+01  2.702199134395E+01
  2.670915253117E+01  2.638466565184E+01  2.604828328605E+01  2.569977208133E+01
  2.533891522629E+01  2.496551511545E+01  2.457939620842E+01  2.418040808517E+01
  2.376842869675E+01  2.334336780862E+01  2.290517063033E+01  2.245382162234E+01
  2.198934846637E+01  2.151182618157E+01  2.102138136322E+01  2.051819651547E+01
  2.000251444284E+01  1.947464265864E+01  1.893495776057E+01  1.866082302833E+01
  1.838390971589E+01  1.810428621069E+01  1.782202598975E+01  1.753720773474E+01
  1.724991544136E+01  1.696023852231E+01  1.666827190316E+01  1.637411611009E+01
  1.607787734884E+01  1.577966757381E+01  1.547960454652E+01  1.517781188232E+01
  1.487441908449E+01  1.456956156463E+01  1.426338064835E+01  1.395602356512E+01
  1.364764342133E+01  1.333839915533E+01  1.302845547343E+01  1.271798276585E+01
  1.240715700131E+01  1.209615959945E+01  1.178517727979E+01  1.147440188645E+01
  1.116403018740E+01  1.085426364754E+01  1.054530817459E+01  1.023737383706E+01
  9.930674553579E+00  9.625427752993E+00  9.321854004659E+00  9.020176618652E+00
  8.720621215599E+00  8.423415266066E+00  8.128787599591E+00  7.836967883651E+00
  7.548186073023E+00  7.262671830246E+00  6.980653918119E+00  6.702359565398E+00
  6.428013807140E+00  6.157838801408E+00  5.892053124338E+00  5.630871045874E+00
  5.374501788777E+00  5.123148773838E+00  4.877008854541E+00  4.636271544745E+00
  4.401118243273E+00  4.171721459629E+00  3.948244045345E+00  3.730838435797E+00
  3.519645907562E+00  3.314795856696E+00  3.116405103513E+00  2.924577229659E+00
  2.739401953435E+00  2.560954549444E+00  2.389295318717E+00  2.224469115466E+00
  2.066504936587E+00  1.915415579915E+00  1.771197377054E+00  1.633830006319E+00
  1.503276391028E+00  1.379482687897E+00  1.262378369813E+00  1.151876406637E+00
  1.047873546976E+00  9.502507030910E-01  8.588734402206E-01  7.735925706190E-01
  6.942448515947E-01  6.206537856935E-01  5.526305200089E-01  4.899748403727E-01
  4.324762549211E-01  3.799151602508E-01  3.320640821041E-01  2.886889812640E-01
  2.495506141245E-01  2.144059362578E-01  1.830095362431E-01  1.551150860882E-01
  1.304767937857E-01  1.088508429241E-01  8.999680385766E-02  7.367900073395E-02
  5.966781872206E-02  4.774093608620E-02  3.768446632561E-02  2.929399646286E-02
  2.237550871083E-02  1.674617418141E-02  1.223500900689E-02  8.683385209684E-03
  5.945390852435E-03  3.888036394370E-03  2.391306729348E-03  1.348061036556E-03
  6.637852794465E-04  2.562048794614E-04  5.476770073084E-05  9.939608175499E-09
  4.281974684736E-05  1.436153499829E-04  2.714560222307E-04  4.031054016760E-04
  5.220673494946E-04  6.176147092165E-04  6.838309657860E-04  7.186838953124E-04
  7.231488543307E-04  7.003974112048E-04  6.550646222675E-04  5.926054714160E-04
  5.187479126215E-04  4.390466846609E-04  3.585387235290E-04  2.814977059757E-04
  2.112821460954E-04  1.502686618109E-04  9.985964633229E-05  6.055272264472E-05
  3.205810661093E-05  1.344940900669E-05  3.333489867575E-06  2.572648507633E-08
  1.718420218328E-06  6.631963329905E-06  1.314070034028E-05  1.986800824556E-05
  2.574782772433E-05  3.005253616141E-05  3.238949841329E-05  3.267071213683E-05
  3.106155573057E-05  2.791565816635E-05  2.370329392446E-05  1.894046353724E-05
  1.412500070892E-05  9.684746681211E-06  5.941186630151E-06  3.090114623526E-06
  1.199060012858E-06  2.195434933288E-07  1.089040241840E-08  3.714319303965E-07
  1.072543601337E-06  1.891120286098E-06  2.636725219895E-06  3.170679773742E-06
  3.415640252184E-06  3.355569820682E-06  3.027283226609E-06  2.505760176092E-06
  1.886067388898E-06  1.264929996971E-06  7.247437876473E-07  3.221790161843E-07
  8.260865900938E-08  5.529629967876E-10  0.000000000000E+00  0.000000000000E+00
  0.000000000000E+00  0.000000000000E+00  0.000000000000E+00  0.000000000000E+00
  0.000000000000E+00  0.000000000000E+00  0.000000000000E+00  0.000000000000E+00
  0.000000000000E+00  0.000000000000E+00  0.000000000000E+00  0.000000000000E+00
  0.000000000000E+00  0.000000000000E+00  0.000000000000E+00  0.000000000000E+00
  0.000000000000E+00  0.000000000000E+00  0.000000000000E+00  0.000000000000E+00
  0.000000000000E+00  0.000000000000E+00  0.000000000000E+00  0.000000000000E+00
  0.000000000000E+00  0.000000000000E+00  0.000000000000E+00  0.000000000000E+00
  0.000000000000E+00  0.000000000000E+00  0.000000000000E+00  0.000000000000E+00
  0.000000000000E+00  0.000000000000E+00  0.000000000000E+00  0.000000000000E+00
  0.000000000000E+00  0.000000000000E+00  0.000000000000E+00  0.000000000000E+00
  0.000000000000E+00  0.000000000000E+00  0.000000000000E+00  0.000000000000E+00
  0.000000000000E+00  0.000000000000E+00  0.000000000000E+00  0.000000000000E+00
  0.000000000000E+00  0.000000000000E+00  0.000000000000E+00  0.000000000000E+00
  0.000000000000E+00  0.000000000000E+00  0.000000000000E+00  0.000000000000E+00
  0.000000000000E+00  0.000000000000E+00
</data>
</radfunc>
</pseudocore-charge>
<semilocal-potentials set="scalar_relativistic">
<slps n="4" l="s" rc="1.45540543585" eref="-2.36471430318">
<radfunc>
<data npts="290">
  8.798313058896E+01  8.788505346138E+01  8.759286253609E+01  8.710869163888E+01
  8.644230674155E+01  8.557787046517E+01  8.449512294745E+01  8.328065714467E+01
  8.180880271352E+01  8.026120546860E+01  7.856894635237E+01  7.678935715923E+01
  7.471741845630E+01  7.264037108969E+01  7.064882244192E+01  6.845172308970E+01
  6.604161314362E+01  6.386732717526E+01  6.154181676917E+01  5.906702283070E+01
  5.644740328430E+01  5.425216137231E+01  5.197375076018E+01  4.961832764477E+01
  4.719320266413E+01  4.470678734075E+01  4.216850678627E+01  4.023693746900E+01
  3.828661779873E+01  3.632237687568E+01  3.434919245754E+01  3.237214250031E+01
  3.039635465713E+01  2.842695482314E+01  2.646901585195E+01  2.452750756536E+01
  2.260724913319E+01  2.071286481695E+01  1.946649478361E+01  1.823481590907E+01
  1.701900591389E+01  1.582018156839E+01  1.463939571960E+01  1.347763485989E+01
  1.233581724121E+01  1.121479153220E+01  1.011533600938E+01  9.038158267837E+00
  7.983895431790E+00  6.953114840890E+00  5.946315184228E+00  4.963928050803E+00
  4.006319862690E+00  3.073794155139E+00  2.166594166564E+00  1.284905700514E+00
  4.288602214373E-01 -4.014618538948E-01 -1.206027706998E+00 -1.984848547312E+00
 -2.737975956985E+00 -3.465498185824E+00 -4.167536430329E+00 -4.844241129406E+00
 -5.495788307998E+00 -6.122375998305E+00 -6.724220766369E+00 -7.015936473660E+00
 -7.301554369539E+00 -7.581105274059E+00 -7.854620567392E+00 -8.122132099847E+00
 -8.383672104882E+00 -8.639273115179E+00 -8.888967881796E+00 -9.132789296401E+00
 -9.370770316559E+00 -9.602943893969E+00 -9.829342905587E+00 -1.005000008754E+01
 -1.026494797150E+01 -1.047421882363E+01 -1.067784458558E+01 -1.087585681754E+01
 -1.106828664296E+01 -1.125516469493E+01 -1.143652106368E+01 -1.161238524540E+01
 -1.178278609189E+01 -1.194775176119E+01 -1.210730966897E+01 -1.226148644091E+01
 -1.241030786600E+01 -1.255379885108E+01 -1.269198337690E+01 -1.282488445605E+01
 -1.295252409328E+01 -1.307492324871E+01 -1.319210180461E+01 -1.330407853636E+01
 -1.341087108829E+01 -1.351249595528E+01 -1.360896847062E+01 -1.370030280113E+01
 -1.378651195014E+01 -1.386760776903E+01 -1.394360097822E+01 -1.401450119808E+01
 -1.408031699068E+01 -1.414105591287E+01 -1.419672458156E+01 -1.424732875177E+01
 -1.429287340815E+01 -1.433336287069E+01 -1.436880091511E+01 -1.439919090861E+01
 -1.442453596123E+01 -1.444483909315E+01 -1.446010341795E+01 -1.447033234155E+01
 -1.447552977629E+01 -1.447570036939E+01 -1.447084974438E+01 -1.446098475423E+01
 -1.444611374434E+01 -1.442624682341E+01 -1.440139614037E+01 -1.437157616550E+01
 -1.433680397402E+01 -1.429709953128E+01 -1.425248597881E+01 -1.420298992175E+01
 -1.414864171871E+01 -1.408947577650E+01 -1.402553085288E+01 -1.395685037191E+01
 -1.388348275719E+01 -1.380548178926E+01 -1.372290699426E+01 -1.363582407139E+01
 -1.354430536695E+01 -1.344843040312E+01 -1.334828646935E+01 -1.324396928405E+01
 -1.313558373376E+01 -1.302324469657E+01 -1.290707795554E+01 -1.278722120735E+01
 -1.266382516996E+01 -1.253705479225E+01 -1.240709056675E+01 -1.227412994497E+01