
     Program PWSCF v.7.1 starts on 19Mar2024 at  5:18:46 

     This program is part of the open-source Quantum ESPRESSO suite
     for quantum simulation of materials; please cite
         "P. Giannozzi et al., J. Phys.:Condens. Matter 21 395502 (2009);
         "P. Giannozzi et al., J. Phys.:Condens. Matter 29 465901 (2017);
         "P. Giannozzi et al., J. Chem. Phys. 152 154105 (2020);
          URL http://www.quantum-espresso.org", 
     in publications or presentations arising from this work. More details at
     http://www.quantum-espresso.org/quote

     Parallel version (MPI & OpenMP), running on      56 processor cores
     Number of MPI processes:                56
     Threads/MPI process:                     1

     MPI processes distributed on     1 nodes
     174940 MiB available memory on the printing compute node when the environment starts
 
     Reading input from pw.in

     Current dimensions of program PWSCF are:
     Max number of different atomic species (ntypx) = 10
     Max number of k-points (npk) =  40000
     Max angular momentum in pseudopotentials (lmaxx) =  4
     Message from routine cell_base_init:
     DEPRECATED: use true lattice parameter, not A to a.u. conversion factor

     Atomic positions and unit cell read from directory:
     ./MoS2.save/
     Atomic positions from file used, from input discarded
 
     Message from routine setup:
     using ibrav=0 with symmetry is DISCOURAGED, use correct ibrav instead
 
     R & G space division:  proc/nbgrp/npool/nimage =      56
     Subspace diagonalization in iterative solution of the eigenvalue problem:
     a serial algorithm will be used

 
     Parallelization info
     --------------------
     sticks:   dense  smooth     PW     G-vecs:    dense   smooth      PW
     Min          10      10      2                 1286     1286     170
     Max          11      11      3                 1317     1317     225
     Sum         583     583    163                72745    72745   11663
 
     Using Slab Decomposition
 


     bravais-lattice index     =            0
     lattice parameter (alat)  =       1.8897  a.u.
     unit-cell volume          =    1157.9763 (a.u.)^3
     number of atoms/cell      =            6
     number of atomic types    =            2
     number of electrons       =        52.00
     number of Kohn-Sham states=           36
     kinetic-energy cutoff     =      60.0000  Ry
     charge density cutoff     =     240.0000  Ry
     Exchange-correlation= PBE
                           (   1   4   3   4   0   0   0)

     celldm(1)=   1.889726  celldm(2)=   0.000000  celldm(3)=   0.000000
     celldm(4)=   0.000000  celldm(5)=   0.000000  celldm(6)=   0.000000

     crystal axes: (cart. coord. in units of alat)
               a(1) = (   3.147540  -0.000000   0.000000 )  
               a(2) = (  -1.573770   2.725849   0.000000 )  
               a(3) = (   0.000000   0.000000  20.000000 )  

     reciprocal axes: (cart. coord. in units 2 pi/alat)
               b(1) = (  0.317708  0.183429  0.000000 )  
               b(2) = (  0.000000  0.366858  0.000000 )  
               b(3) = (  0.000000  0.000000  0.050000 )  


     PseudoPot. # 1 for Mo read from file:
     ../pseudos/Mo.upf
     MD5 check sum: 7ca7a9feba7bf08d88d14bc7fbf60c1e
     Pseudo is Norm-conserving + core correction, Zval = 14.0
     Generated using ONCVPSP code by D. R. Hamann
     Using radial grid of 1640 points,  6 beta functions with: 
                l(1) =   0
                l(2) =   0
                l(3) =   1
                l(4) =   1
                l(5) =   2
                l(6) =   2

     PseudoPot. # 2 for S  read from file:
     ../pseudos/S.upf
     MD5 check sum: 6027e7704d67ae28863b2247926ce6f3
     Pseudo is Norm-conserving + core correction, Zval =  6.0
     Generated using ONCVPSP code by D. R. Hamann
     Using radial grid of 1146 points,  6 beta functions with: 
                l(1) =   0
                l(2) =   0
                l(3) =   1
                l(4) =   1
                l(5) =   2
                l(6) =   2

     atomic species   valence    mass     pseudopotential
        Mo            14.00    95.95000     Mo( 1.00)
        S              6.00    32.06600     S ( 1.00)

      6 Sym. Ops. (no inversion) found



   Cartesian axes

     site n.     atom                  positions (alat units)
         1           Mo  tau(   1) = (  -0.0000016   1.8172338   8.2522605  )
         2           Mo  tau(   2) = (   1.5737714   0.9086155  14.3170377  )
         3           S   tau(   3) = (   1.5737714   0.9086155   6.6837867  )
         4           S   tau(   4) = (   1.5737714   0.9086155   9.8192070  )
         5           S   tau(   5) = (  -0.0000016   1.8172338  12.7500912  )
         6           S   tau(   6) = (  -0.0000016   1.8172338  15.8855112  )

     number of k points=    48
                       cart. coord. in units 2pi/alat
        k(    1) = (   0.0000000   0.0000000   0.0000000), wk =   0.0416667
        k(    2) = (   0.0052951   0.0091715   0.0000000), wk =   0.0416667
        k(    3) = (   0.0105903   0.0183429   0.0000000), wk =   0.0416667
        k(    4) = (   0.0158854   0.0275144   0.0000000), wk =   0.0416667
        k(    5) = (   0.0211806   0.0366858   0.0000000), wk =   0.0416667
        k(    6) = (   0.0264757   0.0458573   0.0000000), wk =   0.0416667
        k(    7) = (   0.0317708   0.0550287   0.0000000), wk =   0.0416667
        k(    8) = (   0.0370660   0.0642002   0.0000000), wk =   0.0416667
        k(    9) = (   0.0423611   0.0733716   0.0000000), wk =   0.0416667
        k(   10) = (   0.0476563   0.0825431   0.0000000), wk =   0.0416667
        k(   11) = (   0.0529514   0.0917145   0.0000000), wk =   0.0416667
        k(   12) = (   0.0582466   0.1008860   0.0000000), wk =   0.0416667
        k(   13) = (   0.0635417   0.1100574   0.0000000), wk =   0.0416667
        k(   14) = (   0.0688368   0.1192289   0.0000000), wk =   0.0416667
        k(   15) = (   0.0741320   0.1284003   0.0000000), wk =   0.0416667
        k(   16) = (   0.0794271   0.1375718   0.0000000), wk =   0.0416667
        k(   17) = (   0.0847223   0.1467433   0.0000000), wk =   0.0416667
        k(   18) = (   0.0900174   0.1559147   0.0000000), wk =   0.0416667
        k(   19) = (   0.0953125   0.1650862   0.0000000), wk =   0.0416667
        k(   20) = (   0.1006077   0.1742576   0.0000000), wk =   0.0416667
        k(   21) = (   0.1059028   0.1834291   0.0000000), wk =   0.0416667
        k(   22) = (   0.1111980   0.1742576   0.0000000), wk =   0.0416667
        k(   23) = (   0.1164931   0.1650862   0.0000000), wk =   0.0416667
        k(   24) = (   0.1217882   0.1559147   0.0000000), wk =   0.0416667
        k(   25) = (   0.1270834   0.1467433   0.0000000), wk =   0.0416667
        k(   26) = (   0.1323785   0.1375718   0.0000000), wk =   0.0416667
        k(   27) = (   0.1376737   0.1284003   0.0000000), wk =   0.0416667
        k(   28) = (   0.1429688   0.1192289   0.0000000), wk =   0.0416667
        k(   29) = (   0.1482639   0.1100574   0.0000000), wk =   0.0416667
        k(   30) = (   0.1535591   0.1008860   0.0000000), wk =   0.0416667
        k(   31) = (   0.1588542   0.0917145   0.0000000), wk =   0.0416667
        k(   32) = (   0.1495099   0.0863196   0.0000000), wk =   0.0416667
        k(   33) = (   0.1401655   0.0809246   0.0000000), wk =   0.0416667
        k(   34) = (   0.1308211   0.0755296   0.0000000), wk =   0.0416667
        k(   35) = (   0.1214768   0.0701346   0.0000000), wk =   0.0416667
        k(   36) = (   0.1121324   0.0647397   0.0000000), wk =   0.0416667
        k(   37) = (   0.1027880   0.0593447   0.0000000), wk =   0.0416667
        k(   38) = (   0.0934437   0.0539497   0.0000000), wk =   0.0416667
        k(   39) = (   0.0840993   0.0485548   0.0000000), wk =   0.0416667
        k(   40) = (   0.0747549   0.0431598   0.0000000), wk =   0.0416667
        k(   41) = (   0.0654106   0.0377648   0.0000000), wk =   0.0416667
        k(   42) = (   0.0560662   0.0323698   0.0000000), wk =   0.0416667
        k(   43) = (   0.0467218   0.0269749   0.0000000), wk =   0.0416667
        k(   44) = (   0.0373775   0.0215799   0.0000000), wk =   0.0416667
        k(   45) = (   0.0280331   0.0161849   0.0000000), wk =   0.0416667
        k(   46) = (   0.0186887   0.0107899   0.0000000), wk =   0.0416667
        k(   47) = (   0.0093444   0.0053950   0.0000000), wk =   0.0416667
        k(   48) = (   0.0000000   0.0000000   0.0000000), wk =   0.0416667

     Dense  grid:    72745 G-vectors     FFT dimensions: (  30,  30, 192)

     Estimated max dynamical RAM per process >       3.96 MB

     Estimated total dynamical RAM >     221.91 MB

     The potential is recalculated from file :
     ./MoS2.save/charge-density

     Starting wfcs are   36 randomized atomic wfcs

     Band Structure Calculation
     Davidson diagonalization with overlap

     ethr =  1.00E-13,  avg # of iterations = 59.5

     total cpu time spent up to now is       13.9 secs

     End of band structure calculation

          k = 0.0000 0.0000 0.0000 (  9183 PWs)   bands (ev):

   -56.6243 -56.6243 -30.7800 -30.7800 -30.5277 -30.5277 -30.5275 -30.5274
   -10.0848  -9.9104  -8.8086  -8.5458  -1.8292  -1.2309   1.6427   1.6427
     1.6510   1.6511   1.7829   2.7604   2.7604   2.7893   2.7894   2.9229
     3.9421   4.7058   7.0520   7.0521   7.0757   7.0758   7.2539   7.2539
     7.3539   7.3539   9.5460  10.0482

          k = 0.0053 0.0092 0.0000 (  9175 PWs)   bands (ev):

   -56.6239 -56.6239 -30.7793 -30.7791 -30.5312 -30.5310 -30.5283 -30.5283
   -10.0718  -9.8975  -8.8026  -8.5407  -1.8144  -1.2161   1.6122   1.6208
     1.6563   1.6648   1.7446   2.6173   2.7382   2.7676   2.8113   3.0435
     3.9416   4.6891   7.0364   7.0516   7.0746   7.0997   7.2245   7.2396
     7.3103   7.3398   9.5665  10.0723

          k = 0.0106 0.0183 0.0000 (  9167 PWs)   bands (ev):

   -56.6229 -56.6228 -30.7773 -30.7770 -30.5413 -30.5413 -30.5308 -30.5307
   -10.0329  -9.8589  -8.7847  -8.5258  -1.7705  -1.1724   1.5239   1.5329
     1.6418   1.6965   1.7054   2.4027   2.6707   2.7014   2.8668   3.1918
     3.9382   4.6366   6.9915   6.9952   7.1182   7.1459   7.1711   7.1881
     7.2165   7.2980   9.6251  10.1388

          k = 0.0159 0.0275 0.0000 (  9167 PWs)   bands (ev):

   -56.6212 -56.6211 -30.7738 -30.7738 -30.5579 -30.5579 -30.5349 -30.5349
    -9.9689  -9.7953  -8.7553  -8.5012  -1.6995  -1.1021   1.3864   1.3957
     1.4992   1.7617   1.7716   2.1775   2.5561   2.5895   2.9365   3.3107
     3.9274   4.5443   6.9095   6.9318   6.9937   7.0590   7.1168   7.2153
     7.2712   7.2957   9.7171  10.2374

          k = 0.0212 0.0367 0.0000 (  9129 PWs)   bands (ev):

   -56.6188 -56.6187 -30.7690 -30.7689 -30.5800 -30.5797 -30.5404 -30.5403
    -9.8809  -9.7081  -8.7148  -8.4674  -1.6048  -1.0095   1.2125   1.2215
     1.3378   1.8491   1.8606   1.9530   2.3934   2.4314   3.0058   3.3945
     3.9024   4.4102   6.7859   6.8332   6.8395   7.0036   7.0270   7.1263
     7.4076   7.4454   9.8391  10.3619

          k = 0.0265 0.0459 0.0000 (  9115 PWs)   bands (ev):

   -56.6159 -56.6158 -30.7634 -30.7634 -30.6071 -30.6068 -30.5474 -30.5471
    -9.7704  -9.5987  -8.6639  -8.4251  -1.4919  -0.9010   1.0172   1.0249
     1.1721   1.7355   1.9528   1.9677   2.1859   2.2304   3.0667   3.4428
     3.8560   4.2377   6.5814   6.7354   6.7663   6.9233   6.9861   7.0250
     7.5719   7.6314   9.9899  10.5103

          k = 0.0318 0.0550 0.0000 (  9119 PWs)   bands (ev):

   -56.6126 -56.6126 -30.7571 -30.7569 -30.6378 -30.6377 -30.5562 -30.5562
    -9.6395  -9.4695  -8.6036  -8.3752  -1.3680  -0.7865   0.8177   0.8210
     1.0120   1.5283   1.9289   1.9935   2.0758   2.0866   3.1148   3.4570
     3.7829   4.0373   6.3898   6.6383   6.7286   6.8207   6.9103   7.0174
     7.7503   7.8391  10.1688  10.6816

          k = 0.0371 0.0642 0.0000 (  9099 PWs)   bands (ev):

   -56.6089 -56.6089 -30.7500 -30.7500 -30.6704 -30.6704 -30.5665 -30.5663
    -9.4905  -9.3229  -8.5349  -8.3187  -1.2435  -0.6815   0.6254   0.6337
     0.8641   1.3280   1.6539   1.7412   2.1850   2.2007   3.1471   3.4396
     3.6848   3.8261   6.2234   6.5468   6.7172   6.7412   6.8352   7.0613
     7.9308   8.0561  10.3751  10.8750

          k = 0.0424 0.0734 0.0000 (  9103 PWs)   bands (ev):

   -56.6051 -56.6050 -30.7426 -30.7423 -30.7046 -30.7042 -30.5785 -30.5784
    -9.3264  -9.1621  -8.4592  -8.2568  -1.1325  -0.6085   0.4538   0.4894
     0.7311   1.1189   1.3621   1.5021   2.2749   2.2909   3.1607   3.3927
     3.5743   3.6282   6.0870   6.4582   6.6812   6.7501   6.8047   7.1237
     8.1020   8.2701  10.6076  11.0885

          k = 0.0477 0.0825 0.0000 (  9089 PWs)   bands (ev):

   -56.6011 -56.6010 -30.7377 -30.7376 -30.7346 -30.7346 -30.5921 -30.5920
    -9.1506  -8.9907  -8.3780  -8.1910  -1.0516  -0.5923   0.3207   0.4068
     0.6069   0.8784   1.0813   1.3162   2.3143   2.3250   3.1527   3.3157
     3.4772   3.4789   5.9860   6.3873   6.6733   6.7985   6.8157   7.1976
     8.2538   8.4701  10.8644  11.3195

          k = 0.0530 0.0917 0.0000 (  9093 PWs)   bands (ev):

   -56.5971 -56.5971 -30.7696 -30.7694 -30.7268 -30.7267 -30.6073 -30.6073
    -8.9670  -8.8129  -8.2928  -8.1227  -1.0144  -0.6383   0.2261   0.3737
     0.4695   0.6208   0.8602   1.1968   2.2743   2.2750   3.1204   3.2055
     3.4106   3.4222   5.9301   6.3562   6.7051   6.8520   6.8652   7.2777
     8.3793   8.6470  11.1429  11.5645

          k = 0.0582 0.1009 0.0000 (  9093 PWs)   bands (ev):

   -56.5933 -56.5932 -30.7984 -30.7980 -30.7192 -30.7191 -30.6241 -30.6241
    -8.7800  -8.6332  -8.2057  -8.0537  -1.0206  -0.7223   0.1074   0.2382
     0.3411   0.4932   0.7484   1.1305   2.1451   2.1483   3.0642   3.0723
     3.4126   3.4174   5.9289   6.3808   6.7665   6.8959   6.9415   7.3600
     8.4763   8.7951  11.4380  11.8188

          k = 0.0635 0.1101 0.0000 (  9097 PWs)   bands (ev):

   -56.5897 -56.5896 -30.8232 -30.8230 -30.7122 -30.7122 -30.6419 -30.6418
    -8.5947  -8.4569  -8.1187  -7.9859  -1.0530  -0.8123  -0.1146  -0.0275
     0.3129   0.5097   0.7236   1.1023   1.9563   1.9666   2.9229   2.9869
     3.4487   3.4571   5.9841   6.4623   6.8422   6.9326   7.0182   7.4410
     8.5492   8.9131  11.7390  12.0731

          k = 0.0688 0.1192 0.0000 (  9089 PWs)   bands (ev):

   -56.5863 -56.5863 -30.8429 -30.8428 -30.7057 -30.7057 -30.6611 -30.6610
    -8.4165  -8.2894  -8.0339  -7.9213  -1.0882  -0.8856  -0.3685  -0.2948
     0.3370   0.5336   0.7439   1.0994   1.7234   1.7676   2.7609   2.8909
     3.5041   3.5286   6.0830   6.5757   6.9165   6.9634   7.0886   7.5161
     8.6093   9.0049  12.0108  12.1630

          k = 0.0741 0.1284 0.0000 (  9067 PWs)   bands (ev):

   -56.5834 -56.5833 -30.8571 -30.8568 -30.6998 -30.6997 -30.6811 -30.6810
    -8.2510  -8.1362  -7.9537  -7.8619  -1.1065  -0.9278  -0.6105  -0.5402
     0.3805   0.5398   0.7831   1.1107   1.4684   1.5660   2.5916   2.7791
     3.5820   3.6244   6.1953   6.6451   6.9787   7.0354   7.1511   7.5788
     8.6715   9.0779  11.9504  12.0628

          k = 0.0794 0.1376 0.0000 (  9071 PWs)   bands (ev):

   -56.5809 -56.5809 -30.8656 -30.8654 -30.7021 -30.7020 -30.6950 -30.6949
    -8.1037  -8.0026  -7.8805  -7.8100  -1.0961  -0.9305  -0.8232  -0.7548
     0.4322   0.5197   0.8243   1.1201   1.2078   1.3831   2.4220   2.6553
     3.6833   3.7438   6.2753   6.6013   7.0226   7.1907   7.2211   7.6234
     8.7486   9.1392  11.7672  11.8447

          k = 0.0847 0.1467 0.0000 (  9073 PWs)   bands (ev):

   -56.5789 -56.5788 -30.8682 -30.8680 -30.7235 -30.7233 -30.6911 -30.6909
    -7.9791  -7.8928  -7.8164  -7.7673  -1.0777  -0.9689  -0.9393  -0.8832
     0.4699   0.4824   0.8146   1.0027   1.0582   1.2922   2.2617   2.5240
     3.8045   3.8809   6.2839   6.4797   7.0346   7.3319   7.3702   7.6533
     8.8448   9.1919  11.6020  11.6449

          k = 0.0900 0.1559 0.0000 (  9079 PWs)   bands (ev):

   -56.5773 -56.5773 -30.8650 -30.8648 -30.7449 -30.7448 -30.6882 -30.6882
    -7.8802  -7.8098  -7.7640  -7.7352  -1.1761  -1.0765  -0.9140  -0.8005
     0.3914   0.5129   0.6176   0.9070   1.0098   1.3099   2.1250   2.3908
     3.9339   4.0226   6.2228   6.3258   7.0130   7.4855   7.4969   7.6969
     8.9538   9.2333  11.3876  11.6007

          k = 0.0953 0.1651 0.0000 (  9067 PWs)   bands (ev):

   -56.5762 -56.5762 -30.8567 -30.8566 -30.7655 -30.7655 -30.6860 -30.6860
    -7.8081  -7.7558  -7.7251  -7.7134  -1.2746  -1.1753  -0.7749  -0.6815
     0.2913   0.3412   0.5616   0.7568   1.0890   1.3359   2.0344   2.2624
     4.0526   4.1489   6.1296   6.1765   6.9761   7.5297   7.6442   7.7737
     9.0623   9.2571  11.2269  11.6465

          k = 0.1006 0.1743 0.0000 (  9069 PWs)   bands (ev):

   -56.5757 -56.5757 -30.8459 -30.8458 -30.7837 -30.7836 -30.6848 -30.6847
    -7.7612  -7.7330  -7.7015  -7.6991  -1.3346  -1.2330  -0.6083  -0.5594
     0.1136   0.1939   0.5735   0.6412   1.1817   1.3229   2.0135   2.1479
     4.1367   4.2362   6.0510   6.0669   6.9426   7.5227   7.7679   7.8268
     9.1559   9.2561  11.1356  11.7843

          k = 0.1059 0.1834 0.0000 (  9045 PWs)   bands (ev):

   -56.5754 -56.5754 -30.8390 -30.8390 -30.7922 -30.7921 -30.6844 -30.6844
    -7.7370  -7.7370  -7.6936  -7.6936  -1.3542  -1.2515  -0.5047  -0.5047
    -0.0040   0.1527   0.5840   0.5840   1.2655   1.2655   2.0596   2.0596
     4.1665   4.2665   6.0240   6.0240   6.9286   7.5160   7.8284   7.8284
     9.2232   9.2232  11.1108  11.9696

          k = 0.1112 0.1743 0.0000 (  9058 PWs)   bands (ev):

   -56.5756 -56.5756 -30.8468 -30.8466 -30.7828 -30.7828 -30.6846 -30.6846
    -7.7585  -7.7331  -7.7006  -7.6988  -1.3359  -1.2348  -0.6045  -0.5719
     0.1127   0.1674   0.6103   0.6384   1.1896   1.3187   2.0122   2.1427
     4.1399   4.2404   6.0521   6.0624   6.9462   7.5266   7.7843   7.8156
     9.1523   9.2552  11.1198  11.7682

          k = 0.1165 0.1651 0.0000 (  9038 PWs)   bands (ev):

   -56.5760 -56.5760 -30.8620 -30.8619 -30.7617 -30.7617 -30.6854 -30.6853
    -7.7923  -7.7482  -7.7186  -7.7120  -1.2850  -1.1893  -0.7967  -0.7146
     0.1527   0.2898   0.7114   0.8265   1.1333   1.3309   2.0124   2.2343
     4.0754   4.1782   6.1323   6.1539   7.0043   7.5602   7.7147   7.7394
     9.0420   9.2437  11.1140  11.5352

          k = 0.1218 0.1559 0.0000 (  9068 PWs)   bands (ev):

   -56.5768 -56.5767 -30.8786 -30.8785 -30.7376 -30.7374 -30.6869 -30.6867
    -7.8347  -7.7782  -7.7441  -7.7300  -1.2133  -1.1241  -0.9904  -0.8805
     0.1094   0.3636   0.9465   0.9568   1.2454   1.3245   2.0465   2.3162
     3.9976   4.1038   6.2375   6.2736   7.1064   7.5680   7.6217   7.6901
     8.8965   9.1838  11.0669  11.3160

          k = 0.1271 0.1467 0.0000 (  9086 PWs)   bands (ev):

   -56.5776 -56.5775 -30.8943 -30.8941 -30.7125 -30.7124 -30.6888 -30.6884
    -7.8815  -7.8163  -7.7736  -7.7518  -1.2203  -1.0735  -1.0547  -1.0404
     0.0610   0.3683   0.9422   1.1366   1.4372   1.5695   2.0924   2.3772
     3.9246   4.0330   6.3449   6.3979   7.2409   7.4874   7.4979   7.7881
     8.7268   9.0794  10.9827  11.1167

          k = 0.1324 0.1376 0.0000 (  9080 PWs)   bands (ev):

   -56.5784 -56.5784 -30.9082 -30.9081 -30.6900 -30.6899 -30.6883 -30.6881
    -7.9287  -7.8570  -7.8040  -7.7755  -1.3708  -1.1979  -0.9832  -0.9768
     0.0179   0.3517   0.9286   1.1347   1.7672   1.9361   2.1365   2.4128
     3.8632   3.9709   6.4392   6.5074   7.2709   7.3964   7.5215   7.9357
     8.5491   8.9427  10.8725  10.9418

          k = 0.1377 0.1284 0.0000 (  9078 PWs)   bands (ev):

   -56.5792 -56.5792 -30.9199 -30.9198 -30.6917 -30.6914 -30.6664 -30.6663
    -7.9727  -7.8961  -7.8327  -7.7989  -1.5103  -1.3299  -0.9160  -0.8804
    -0.0163   0.3300   0.9394   1.0991   2.0928   2.2156   2.2942   2.4320
     3.8107   3.9141   6.5121   6.5859   7.1659   7.3156   7.7327   8.0959
     8.3936   8.7916  10.7466  10.7944

          k = 0.1430 0.1192 0.0000 (  9088 PWs)   bands (ev):

   -56.5799 -56.5799 -30.9297 -30.9293 -30.6932 -30.6926 -30.6482 -30.6482
    -8.0103  -7.9301  -7.8574  -7.8195  -1.6231  -1.4373  -0.8719  -0.7881
    -0.0412   0.3104   0.9741   1.0670   2.1580   2.3917   2.5314   2.6707
     3.7571   3.8532   6.5613   6.6207   7.0793   7.2518   7.9789   8.1332
     8.3932   8.6465  10.6169  10.6765

          k = 0.1483 0.1101 0.0000 (  9098 PWs)   bands (ev):

   -56.5805 -56.5804 -30.9367 -30.9363 -30.6943 -30.6937 -30.6345 -30.6345
    -8.0390  -7.9563  -7.8763  -7.8357  -1.7057  -1.5164  -0.8443  -0.7162
    -0.0582   0.2958   1.0212   1.0446   2.1684   2.3672   2.8558   2.9816
     3.6887   3.7762   6.5898   6.6138   7.0344   7.2071   8.0368   8.2140
     8.5269   8.5465  10.4997  10.5891

          k = 0.1536 0.1009 0.0000 (  9060 PWs)   bands (ev):

   -56.5808 -56.5807 -30.9406 -30.9403 -30.6947 -30.6942 -30.6255 -30.6253
    -8.0569  -7.9728  -7.8882  -7.8459  -1.7559  -1.5648  -0.8300  -0.6711
    -0.0681   0.2874   1.0323   1.0622   2.1706   2.3412   3.1214   3.2394
     3.5961   3.6742   6.5910   6.6035   7.0192   7.1810   7.9615   8.3881
     8.4511   8.6753  10.4153  10.5345

          k = 0.1589 0.0917 0.0000 (  9060 PWs)   bands (ev):

   -56.5809 -56.5808 -30.9421 -30.9417 -30.6949 -30.6943 -30.6226 -30.6225
    -8.0630  -7.9785  -7.8922  -7.8494  -1.7728  -1.5811  -0.8257  -0.6559
    -0.0714   0.2847   1.0285   1.0786   2.1707   2.3303   3.2541   3.3772
     3.5244   3.5910   6.5800   6.6074   7.0161   7.1725   7.9348   8.4140
     8.4651   8.7244  10.3840  10.5156

          k = 0.1495 0.0863 0.0000 (  9058 PWs)   bands (ev):

   -56.5813 -56.5811 -30.9387 -30.9383 -30.6956 -30.6950 -30.6218 -30.6216
    -8.0877  -7.9993  -7.9034  -7.8548  -1.7505  -1.5589  -0.8060  -0.6332
    -0.0590   0.2977   1.0390   1.0891   2.1743   2.3420   3.2434   3.3644
     3.4909   3.5769   6.5712   6.6017   6.9837   7.1512   7.9246   8.4057
     8.4604   8.7178  10.4248  10.6097

          k = 0.1402 0.0809 0.0000 (  9078 PWs)   bands (ev):

   -56.5824 -56.5823 -30.9285 -30.9283 -30.6981 -30.6976 -30.6196 -30.6192
    -8.1590  -8.0607  -7.9353  -7.8718  -1.6860  -1.4943  -0.7481  -0.5662
    -0.0240   0.3341   1.0705   1.1204   2.1870   2.3759   3.2106   3.3258
     3.4087   3.5287   6.5475   6.5866   6.8961   7.0937   7.8923   8.3771
     8.4462   8.6977  10.5696  10.8426

          k = 0.1308 0.0755 0.0000 (  9074 PWs)   bands (ev):

   -56.5841 -56.5841 -30.9119 -30.9114 -30.7015 -30.7012 -30.6155 -30.6153
    -8.2698  -8.1591  -7.9846  -7.9015  -1.5867  -1.3922  -0.6547  -0.4578
     0.0282   0.3866   1.1227   1.1721   2.2129   2.4298   3.1552   3.2611
     3.3064   3.4527   6.5160   6.5682   6.7742   7.0148   7.8342   8.3202
     8.4213   8.6633  10.8134  11.1457

          k = 0.1215 0.0701 0.0000 (  9080 PWs)   bands (ev):

   -56.5865 -56.5865 -30.8889 -30.8889 -30.7064 -30.7062 -30.6103 -30.6102
    -8.4117  -8.2884  -8.0477  -7.9432  -1.4639  -1.2603  -0.5307  -0.3131
     0.0895   0.4433   1.1949   1.2438   2.2559   2.5023   3.0764   3.1706
     3.2125   3.3706   6.4862   6.5545   6.6391   6.9283   7.7475   8.2295
     8.3843   8.6133  11.1196  11.4382

          k = 0.1121 0.0647 0.0000 (  9072 PWs)   bands (ev):

   -56.5895 -56.5894 -30.8612 -30.8608 -30.7122 -30.7118 -30.6038 -30.6036
    -8.5759  -8.4413  -8.1209  -7.9951  -1.3333  -1.1085  -0.3827  -0.1397
     0.1538   0.4919   1.2862   1.3343   2.3192   2.5934   2.9746   3.0558
     3.1542   3.3098   6.4676   6.5069   6.5529   6.8435   7.6328   8.1047
     8.3333   8.5462  11.4222  11.5843

          k = 0.1028 0.0593 0.0000 (  9057 PWs)   bands (ev):

   -56.5928 -56.5927 -30.8290 -30.8287 -30.7187 -30.7183 -30.5962 -30.5958
    -8.7543  -8.6099  -8.2008  -8.0544  -1.2153  -0.9500  -0.2185   0.0491
     0.2241   0.5282   1.3953   1.4426   2.4040   2.7037   2.8520   2.9201
     3.1522   3.2942   6.3904   6.4679   6.5694   6.7663   7.4948   7.9510
     8.2665   8.4607  11.3915  11.5440

          k = 0.0934 0.0539 0.0000 (  9077 PWs)   bands (ev):

   -56.5966 -56.5965 -30.7941 -30.7935 -30.7261 -30.7255 -30.5882 -30.5877
    -8.9391  -8.7867  -8.2841  -8.1184  -1.1346  -0.8038  -0.0460   0.2247
     0.3186   0.5762   1.5207   1.5668   2.5074   2.7125   2.7683   2.8317
     3.2156   3.3355   6.3006   6.4912   6.6067   6.7013   7.3425   7.7772
     8.1823   8.3561  11.1345  11.4448

          k = 0.0841 0.0486 0.0000 (  9101 PWs)   bands (ev):

   -56.6006 -56.6005 -30.7570 -30.7565 -30.7338 -30.7333 -30.5797 -30.5791
    -9.1237  -8.9650  -8.3678  -8.1843  -1.1127  -0.6975   0.1328   0.3637
     0.4339   0.7012   1.6600   1.7049   2.5617   2.6065   2.6218   2.9704
     3.3405   3.4304   6.2489   6.5387   6.6537   6.6651   7.1882   7.5945
     8.0800   8.2322  10.8731  11.2688

          k = 0.0748 0.0432 0.0000 (  9115 PWs)   bands (ev):

   -56.6046 -56.6045 -30.7415 -30.7413 -30.7185 -30.7184 -30.5710 -30.5707
    -9.3025  -9.1389  -8.4493  -8.2495  -1.1542  -0.6599   0.3244   0.4850
     0.5766   0.9098   1.8103   1.8541   2.4063   2.4417   2.7365   3.1074
     3.5013   3.5737   6.2466   6.6084   6.6295   6.7421   7.0463   7.4156
     7.9604   8.0905  10.6231  11.0714

          k = 0.0654 0.0378 0.0000 (  9091 PWs)   bands (ev):

   -56.6084 -56.6084 -30.7491 -30.7487 -30.6802 -30.6801 -30.5622 -30.5619
    -9.4705  -9.3034  -8.5262  -8.3119  -1.2442  -0.6967   0.5335   0.6309
     0.7529   1.1515   1.9674   2.0106   2.2536   2.2803   2.8386   3.2289
     3.6466   3.7723   6.3024   6.6352   6.6962   6.8340   6.9322   7.2537
     7.8258   7.9343  10.3920  10.8744

          k = 0.0561 0.0324 0.0000 (  9085 PWs)   bands (ev):

   -56.6121 -56.6121 -30.7562 -30.7559 -30.6441 -30.6440 -30.5539 -30.5535
    -9.6238  -9.4541  -8.5966  -8.3695  -1.3601  -0.7845   0.7550   0.8132
     0.9413   1.4033   2.0896   2.1277   2.1469   2.1709   2.9152   3.3208
     3.7618   3.9955   6.4184   6.6758   6.7964   6.8593   6.9347   7.1229
     7.6807   7.7686  10.1844  10.6883

          k = 0.0467 0.0270 0.0000 (  9109 PWs)   bands (ev):

   -56.6156 -56.6155 -30.7629 -30.7628 -30.6114 -30.6111 -30.5464 -30.5461
    -9.7590  -9.5875  -8.6587  -8.4208  -1.4827  -0.8937   0.9779   1.0135
     1.1312   1.6569   1.9710   1.9912   2.2918   2.3268   2.9556   3.3696
     3.8454   4.2099   6.5858   6.7511   6.8361   6.9019   7.0369   7.0380
     7.5319   7.6008  10.0026  10.5191

          k = 0.0374 0.0216 0.0000 (  9107 PWs)   bands (ev):

   -56.6185 -56.6185 -30.7685 -30.7684 -30.5824 -30.5822 -30.5398 -30.5398
    -9.8734  -9.7006  -8.7113  -8.4645  -1.5974  -1.0026   1.1890   1.2114
     1.3159   1.8578   1.8733   1.9083   2.4395   2.4733   2.9560   3.3654
     3.8981   4.3945   6.7854   6.8491   6.8619   7.0041   7.0088   7.1358
     7.3891   7.4406   9.8484  10.3699

          k = 0.0280 0.0162 0.0000 (  9149 PWs)   bands (ev):

   -56.6210 -56.6210 -30.7734 -30.7732 -30.5594 -30.5591 -30.5348 -30.5347
    -9.9646  -9.7910  -8.7533  -8.4995  -1.6948  -1.0976   1.3738   1.3887
     1.4881   1.7657   1.7781   2.1545   2.5694   2.6015   2.9210   3.3054
     3.9261   4.5369   6.9214   6.9362   6.9887   7.0569   7.0910   7.2158
     7.2664   7.3037   9.7229  10.2432

          k = 0.0187 0.0108 0.0000 (  9157 PWs)   bands (ev):

   -56.6228 -56.6227 -30.7771 -30.7767 -30.5420 -30.5418 -30.5306 -30.5305
   -10.0310  -9.8569  -8.7838  -8.5250  -1.7683  -1.1702   1.5185   1.5293
     1.6368   1.6980   1.7082   2.3919   2.6718   2.7023   2.8651   3.1949
     3.9379   4.6338   6.9898   6.9983   7.1183   7.1387   7.1731   7.1849
     7.2114   7.2993   9.6280  10.1420

          k = 0.0093 0.0054 0.0000 (  9181 PWs)   bands (ev):

   -56.6240 -56.6239 -30.7793 -30.7791 -30.5314 -30.5312 -30.5284 -30.5284
   -10.0713  -9.8970  -8.8024  -8.5405  -1.8138  -1.2155   1.6109   1.6198
     1.6566   1.6654   1.7432   2.6133   2.7376   2.7670   2.8119   3.0463
     3.9415   4.6884   7.0349   7.0540   7.0723   7.1014   7.2230   7.2395
     7.3083   7.3396   9.5672  10.0732

          k = 0.0000 0.0000 0.0000 (  9183 PWs)   bands (ev):

   -56.6243 -56.6243 -30.7800 -30.7800 -30.5277 -30.5277 -30.5275 -30.5274
   -10.0848  -9.9104  -8.8086  -8.5458  -1.8292  -1.2309   1.6427   1.6427
     1.6510   1.6511   1.7829   2.7604   2.7604   2.7893   2.7894   2.9229
     3.9421   4.7058   7.0520   7.0521   7.0757   7.0758   7.2539   7.2539
     7.3539   7.3539   9.5460  10.0482

     Writing all to output data dir ./MoS2.save/
 
     init_run     :      0.03s CPU      0.06s WALL (       1 calls)
     electrons    :     13.30s CPU     13.72s WALL (       1 calls)

     Called by init_run:
     wfcinit      :      0.00s CPU      0.01s WALL (       1 calls)
     potinit      :      0.01s CPU      0.01s WALL (       1 calls)
     hinit0       :      0.01s CPU      0.02s WALL (       1 calls)

     Called by electrons:
     c_bands      :     13.30s CPU     13.72s WALL (       1 calls)
     v_of_rho     :      0.00s CPU      0.01s WALL (       1 calls)

     Called by c_bands:
     init_us_2    :      0.00s CPU      0.01s WALL (      48 calls)
     init_us_2:cp :      0.00s CPU      0.01s WALL (      48 calls)
     cegterg      :     12.92s CPU     13.29s WALL (     158 calls)

     Called by *egterg:
     cdiaghg      :      4.74s CPU      4.81s WALL (    2903 calls)
     h_psi        :      7.18s CPU      7.49s WALL (    3061 calls)
     g_psi        :      0.04s CPU      0.04s WALL (    2855 calls)

     Called by h_psi:
     h_psi:calbec :      0.39s CPU      0.41s WALL (    3061 calls)
     vloc_psi     :      6.54s CPU      6.83s WALL (    3061 calls)
     add_vuspsi   :      0.20s CPU      0.21s WALL (    3061 calls)

     General routines
     calbec       :      0.38s CPU      0.40s WALL (    3061 calls)
     fft          :      0.00s CPU      0.01s WALL (      11 calls)
     fftw         :      6.05s CPU      6.31s WALL (  115284 calls)
     davcio       :      0.01s CPU      0.01s WALL (      96 calls)
 
     Parallel routines
 
     PWSCF        :     13.78s CPU     14.80s WALL

 
   This run was terminated on:   5:19: 1  19Mar2024            

=------------------------------------------------------------------------------=
   JOB DONE.
=------------------------------------------------------------------------------=
