<preamble>

<basis_specs>
===============================================================================
Mo                   Z=  42    Mass=  95.940        Charge= 0.17977+309
Lmxo=2 Lmxkb= 2    BasisType=nodes      Semic=T
L=0  Nsemic=1  Cnfigmx=5
          i=1  nzeta=1  polorb=0  (4s)  (semicore shell)
            splnorm:   0.15000    
               vcte:    0.0000    
               rinn:    0.0000    
               qcoe:    0.0000    
               qyuk:    0.0000    
               qwid:   0.10000E-01
                rcs:    2.7519    
            lambdas:    1.0000    
          i=2  nzeta=2  polorb=1  (5s)  (to be polarized perturbatively)
            splnorm:   0.15000    
               vcte:    0.0000    
               rinn:    0.0000    
               qcoe:    0.0000    
               qyuk:    0.0000    
               qwid:   0.10000E-01
                rcs:    7.1158      7.1158    
            lambdas:    1.0000      1.0000    
L=1  Nsemic=1  Cnfigmx=5
          i=1  nzeta=1  polorb=0  (4p)  (semicore shell)
            splnorm:   0.15000    
               vcte:    0.0000    
               rinn:    0.0000    
               qcoe:    0.0000    
               qyuk:    0.0000    
               qwid:   0.10000E-01
                rcs:    3.1973    
            lambdas:    1.0000    
          i=2  nzeta=0  polorb=0  (5p)  (perturbative polarization orbital) (from 5s)
L=2  Nsemic=0  Cnfigmx=4
          i=1  nzeta=2  polorb=0  (4d)
            splnorm:   0.15000    
               vcte:    0.0000    
               rinn:    0.0000    
               qcoe:    0.0000    
               qyuk:    0.0000    
               qwid:   0.10000E-01
                rcs:    5.1414      5.1414    
            lambdas:    1.0000      1.0000    
-------------------------------------------------------------------------------
L=0  Nkbl=2  erefs: 0.17977+309 0.17977+309
L=1  Nkbl=2  erefs: 0.17977+309 0.17977+309
L=2  Nkbl=1  erefs: 0.17977+309
===============================================================================
</basis_specs>

<pseudopotential_header>
 Mo pb nrl pcec
 ONCVPSP-3.2017-10-31Hamann's oncvpsp                        
 4s 2.00  r= 1.46/4p 6.00  r= 1.46/4d 5.00  r= 1.35/                    4s:4p:4d:5s:
</pseudopotential_header>
</preamble>
Mo                            # Symbol
Mo                            # Label
   42                         # Atomic number
     14.0000000000                             # Valence charge
     95.9400000000        # Mass 
     249.076162689        # Self energy 
   2   7                      # Lmax for basis, no. of nl orbitals 
   2   6                      # Lmax for projectors, no. of nl KB projectors
# PAOs:__________________________
  0  4  1  0  2.000000   #orbital l, n, z, is_polarized, population
 500    0.5514925363823408E-02     2.751947756547881     # npts, delta, cutoff
     0.000000000000000        0.1447362774109820    
    0.5514925363823408E-02    0.1448824332735570    
    0.1102985072764682E-01    0.1453215554923938    
    0.1654477609147022E-01    0.1460531325063618    
    0.2205970145529363E-01    0.1470767244866459    
    0.2757462681911704E-01    0.1483917161597039    
    0.3308955218294045E-01    0.1499973172776015    
    0.3860447754676386E-01    0.1518925632278143    
    0.4411940291058727E-01    0.1540763157774262    
    0.4963432827441067E-01    0.1565472639501704    
    0.5514925363823409E-01    0.1593039250349808    
    0.6066417900205749E-01    0.1623446457246316    
    0.6617910436588090E-01    0.1656676033829475    
    0.7169402972970430E-01    0.1692708074389412    
    0.7720895509352772E-01    0.1731521009061545    
    0.8272388045735113E-01    0.1773091620253640    
    0.8823880582117453E-01    0.1817395060287250    
    0.9375373118499794E-01    0.1864404870233702    
    0.9926865654882135E-01    0.1914092999923858    
    0.1047835819126448        0.1966429829110136    
    0.1102985072764682        0.2021384189758709    
    0.1158134326402916        0.2078923389449034    
    0.1213283580041150        0.2139013235857214    
    0.1268432833679384        0.2201618062299147    
    0.1323582087317618        0.2266700754308694    
    0.1378731340955852        0.2334222777225516    
    0.1433880594594086        0.2404144204766715    
    0.1489029848232320        0.2476423748555747    
    0.1544179101870554        0.2551018788581462    
    0.1599328355508788        0.2627885404559994    
    0.1654477609147023        0.2706978408171252    
    0.1709626862785256        0.2788251376141540    
    0.1764776116423491        0.2871656684143367    
    0.1819925370061725        0.2957145541482976    
    0.1875074623699959        0.3044668026545876    
    0.1930223877338193        0.3134173122970211    
    0.1985373130976427        0.3225608756517391    
    0.2040522384614661        0.3318921832609211    
    0.2095671638252895        0.3414058274500244    
    0.2150820891891129        0.3510963062054107    
    0.2205970145529363        0.3609580271091895    
    0.2261119399167597        0.3709853113280723    
    0.2316268652805832        0.3811723976530387    
    0.2371417906444066        0.3915134465865431    
    0.2426567160082300        0.4020025444740185    
    0.2481716413720534        0.4126337076763925    
    0.2536865667358768        0.4234008867802996    
    0.2592014920997002        0.4342979708426962    
    0.2647164174635236        0.4453187916665144    
    0.2702313428273470        0.4564571281040144    
    0.2757462681911704        0.4677067103844918    
    0.2812611935549938        0.4790612244629180    
    0.2867761189188172        0.4905143163861475    
    0.2922910442826406        0.5020595966732986    
    0.2978059696464641        0.5136906447068506    
    0.3033208950102875        0.5254010131310619    
    0.3088358203741109        0.5371842322542659    
    0.3143507457379343        0.5490338144515738    
    0.3198656711017577        0.5609432585645628    
    0.3253805964655811        0.5729060542944270    
    0.3308955218294045        0.5849156865851892    
    0.3364104471932279        0.5969656399934197    
    0.3419253725570513        0.6090494030410167    
    0.3474402979208747        0.6211604725475428    
    0.3529552232846981        0.6332923579386256    
    0.3584701486485216        0.6454385855269066    
    0.3639850740123450        0.6575927027620573    
    0.3694999993761683        0.6697482824463562    
    0.3750149247399918        0.6818989269123430    
    0.3805298501038152        0.6940382721590357    
    0.3860447754676386        0.7061599919432727    
    0.3915597008314620        0.7182578018226849    
    0.3970746261952854        0.7303254631468836    
    0.4025895515591088        0.7423567869934049    
    0.4081044769229322        0.7543456380450712    
    0.4136194022867556        0.7662859384053481    
    0.4191343276505791        0.7781716713484474    
    0.4246492530144024        0.7899968850008602    
    0.4301641783782258        0.8017556959511175    
    0.4356791037420493        0.8134422927846536    
    0.4411940291058727        0.8250509395406543    
    0.4467089544696961        0.8365759790879533    
    0.4522238798335195        0.8480118364170069    
    0.4577388051973429        0.8593530218452092    
    0.4632537305611663        0.8705941341328095    
    0.4687686559249897        0.8817298635068770    
    0.4742835812888131        0.8927549945908946    
    0.4797985066526365        0.9036644092376306    
    0.4853134320164599        0.9144530892631584    
    0.4908283573802834        0.9251161190800464    
    0.4963432827441068        0.9356486882278093    
    0.5018582081079301        0.9460460937990257    
    0.5073731334717536        0.9563037427595795    
    0.5128880588355770        0.9664171541616791    
    0.5184029841994003        0.9763819612485780    
    0.5239179095632238        0.9861939134499590    
    0.5294328349270472        0.9958488782672230    
    0.5349477602908707         1.005342843048088    
    0.5404626856546940         1.014671916650034    
    0.5459776110185174         1.023832330992304    
    0.5514925363823409         1.032820442496421    
    0.5570074617461642         1.041632733415196    
    0.5625223871099877         1.050265813050448    
    0.5680373124738111         1.058716418859786    
    0.5735522378376344         1.066981417452896    
    0.5790671632014579         1.075057805477900    
    0.5845820885652813         1.082942710398512    
    0.5900970139291047         1.090633391162767    
    0.5956119392929281         1.098127238764189    
    0.6011268646567515         1.105421776696388    
    0.6066417900205749         1.112514661302126    
    0.6121567153843983         1.119403682017929    
    0.6176716407482218         1.126086761515426    
    0.6231865661120451         1.132561955740644    
    0.6287014914758685         1.138827453852501    
    0.6342164168396920         1.144881578061812    
    0.6397313422035154         1.150722783372164    
    0.6452462675673388         1.156349657224045    
    0.6507611929311622         1.161760919043641    
    0.6562761182949856         1.166955419697753    
    0.6617910436588090         1.171932140856348    
    0.6673059690226324         1.176690194264243    
    0.6728208943864559         1.181228820923486    
    0.6783358197502792         1.185547390188028    
    0.6838507451141026         1.189645398772312    
    0.6893656704779261         1.193522469675454    
    0.6948805958417494         1.197178351022673    
    0.7003955212055729         1.200612914825748    
    0.7059104465693963         1.203826155664271    
    0.7114253719332196         1.206818189289477    
    0.7169402972970431         1.209589251152530    
    0.7224552226608665         1.212139694859151    
    0.7279701480246900         1.214469990552522    
    0.7334850733885133         1.216580723226422    
    0.7389999987523367         1.218472590970622    
    0.7445149241161602         1.220146403150594    
    0.7500298494799835         1.221603078523615    
    0.7555447748438070         1.222843643293427    
    0.7610597002076304         1.223869229105583    
    0.7665746255714537         1.224681070985744    
    0.7720895509352772         1.225280505223163    
    0.7776044762991006         1.225668967201645    
    0.7831194016629240         1.225847989180330    
    0.7886343270267474         1.225819198026665    
    0.7941492523905708         1.225584312903989    
    0.7996641777543942         1.225145142916183    
    0.8051791031182176         1.224503584711837    
    0.8106940284820411         1.223661620050512    
    0.8162089538458644         1.222621313333591    
    0.8217238792096878         1.221384809102355    
    0.8272388045735113         1.219954329505862    
    0.8327537299373347         1.218332171741285    
    0.8382686553011581         1.216520705469363    
    0.8437835806649815         1.214522370207663    
    0.8492985060288049         1.212339672704329    
    0.8548134313926283         1.209975184295066    
    0.8603283567564517         1.207431538246021    
    0.8658432821202752         1.204711427085356    
    0.8713582074840985         1.201817599925519    
    0.8768731328479219         1.198752859200961    
    0.8823880582117454         1.195520060907050    
    0.8879029835755687         1.192122108457095    
    0.8934179089393922         1.188561943696187    
    0.8989328343032156         1.184842561234084    
    0.9044477596670389         1.180967003993227    
    0.9099626850308624         1.176938358247372    
    0.9154776103946858         1.172759720817515    
    0.9209925357585093         1.168434208491243    
    0.9265074611223326         1.163964986957772    
    0.9320223864861560         1.159355259339542    
    0.9375373118499795         1.154608245449842    
    0.9430522372138028         1.149727184990144    
    0.9485671625776263         1.144715340008110    
    0.9540820879414497         1.139575989688462    
    0.9595970133052730         1.134312427515880    
    0.9651119386690965         1.128927959335670    
    0.9706268640329199         1.123425900862226    
    0.9761417893967433         1.117809575312710    
    0.9816567147605667         1.112082311077889    
    0.9871716401243901         1.106247439431671    
    0.9926865654882135         1.100308292280770    
    0.9982014908520369         1.094268199955815    
     1.003716416215860         1.088130489045167    
     1.009231341579684         1.081898480272606    
     1.014746266943507         1.075575486419910    
     1.020261192307331         1.069164810295376    
     1.025776117671154         1.062669742749068    
     1.031291043034977         1.056093560735721    
     1.036805968398801         1.049439525425895    
     1.042320893762624         1.042710880366085    
     1.047835819126448         1.035910849688387    
     1.053350744490271         1.029042636370040    
     1.058865669854094         1.022109420543493    
     1.064380595217918         1.015114357857056    
     1.069895520581741         1.008060577886670    
     1.075410445945565         1.000951182598785    
     1.080925371309388        0.9937892448645425    
     1.086440296673211        0.9865778070254692    
     1.091955222037035        0.9793198795104128    
     1.097470147400858        0.9720184395040132    
     1.102985072764682        0.9646764296663300    
     1.108499998128505        0.9572967569035953    
     1.114014923492328        0.9498822911900064    
     1.119529848856152        0.9424358644400254    
     1.125044774219975        0.9349602694312672    
     1.130559699583799        0.9274582587773268    
     1.136074624947622        0.9199325439503170    
     1.141589550311445        0.9123857943528264    
     1.147104475675269        0.9048206364385484    
     1.152619401039092        0.8972396528814887    
     1.158134326402916        0.8896453817929328    
     1.163649251766739        0.8820403159857528    
     1.169164177130563        0.8744269022856462    
     1.174679102494386        0.8668075408883738    
     1.180194027858209        0.8591845847627826    
     1.185708953222033        0.8515603390986802    
     1.191223878585856        0.8439370607989853    
     1.196738803949680        0.8363169580156642    
     1.202253729313503        0.8287021897284779    
     1.207768654677327        0.8210948653659699    
     1.213283580041150        0.8134970444681160    
     1.218798505404973        0.8059107363896122    
     1.224313430768797        0.7983379000432367    
     1.229828356132620        0.7907804436826242    
     1.235343281496444        0.7832402247233550    
     1.240858206860267        0.7757190496020189    
     1.246373132224090        0.7682186736721129    
     1.251888057587914        0.7607408011361166    
     1.257402982951737        0.7532870850131167    
     1.262917908315561        0.7458591271409100    
     1.268432833679384        0.7384584782118837    
     1.273947759043207        0.7310866378421510    
     1.279462684407031        0.7237450546726506    
     1.284977609770854        0.7164351265018625    
     1.290492535134678        0.7091582004489474    
     1.296007460498501        0.7019155731471417    
     1.301522385862324        0.6947084909649668    
     1.307037311226148        0.6875381502586597    
     1.312552236589971        0.6804056976495156    
     1.318067161953795        0.6733122303250908    
     1.323582087317618        0.6662587963767014    
     1.329097012681441        0.6592463951484661    
     1.334611938045265        0.6522759776283577    
     1.340126863409088        0.6453484468319116    
     1.345641788772912        0.6384646582422766    
     1.351156714136735        0.6316254202753905    
     1.356671639500558        0.6248314947337571    
     1.362186564864382        0.6180835973353661    
     1.367701490228205        0.6113823981942085    
     1.373216415592029        0.6047285224531470    
     1.378731340955852        0.5981225507983587    
     1.384246266319676        0.5915650200365904    
     1.389761191683499        0.5850564237010180    
     1.395276117047322        0.5785972126574327    
     1.400791042411146        0.5721877956200346    
     1.406305967774969        0.5658285399346968    
     1.411820893138793        0.5595197726619011    
     1.417335818502616        0.5532617786370739    
     1.422850743866439        0.5470548054052748    
     1.428365669230263        0.5408990593364865    
     1.433880594594086        0.5347947159831791    
     1.439395519957910        0.5287419058450405    
     1.444910445321733        0.5227407228655917    
     1.450425370685556        0.5167912258133024    
     1.455940296049380        0.5108934360738376    
     1.461455221413203        0.5050473505314063    
     1.466970146777027        0.4992529412765183    
     1.472485072140850        0.4935101509870183    
     1.477999997504673        0.4878189133055955    
     1.483514922868497        0.4821791424441908    
     1.489029848232320        0.4765907511869093    
     1.494544773596144        0.4710536289043877    
     1.500059698959967        0.4655676540941542    
     1.505574624323790        0.4601326929715041    
     1.511089549687614        0.4547485959281657    
     1.516604475051437        0.4494152052447112    
     1.522119400415261        0.4441323508426746    
     1.527634325779084        0.4388998521709600    
     1.533149251142907        0.4337175179100769    
     1.538664176506731        0.4285851468183599    
     1.544179101870554        0.4235025282463698    
     1.549694027234378        0.4184694418295238    
     1.555208952598201        0.4134856594372455    
     1.560723877962024        0.4085509445176030    
     1.566238803325848        0.4036650533215462    
     1.571753728689671        0.3988277342750913    
     1.577268654053495        0.3940387289140276    
     1.582783579417318        0.3892977721340144    
     1.588298504781142        0.3846045923802911    
     1.593813430144965        0.3799589122524671    
     1.599328355508788        0.3753604486491351    
     1.604843280872612        0.3708089131280892    
     1.610358206236435        0.3663040121956324    
     1.615873131600259        0.3618454476062938    
     1.621388056964082        0.3574329166435192    
     1.626902982327906        0.3530661123961280    
     1.632417907691729        0.3487447240176698    
     1.637932833055552        0.3444684369851859    
     1.643447758419376        0.3402369333456332    
     1.648962683783199        0.3360498919546514    
     1.654477609147023        0.3319069887073532    
     1.659992534510846        0.3278078967611616    
     1.665507459874669        0.3237522867510007    
     1.671022385238493        0.3197398269971649    
     1.676537310602316        0.3157701837058473    
     1.682052235966140        0.3118430211627038    
     1.687567161329963        0.3079580019195154    
     1.693082086693786        0.3041147869743513    
     1.698597012057610        0.3003130359451454    
     1.704111937421433        0.2965524072370793    
     1.709626862785257        0.2928325582038014    
     1.715141788149080        0.2891531453028756    
     1.720656713512903        0.2855138242453419    
     1.726171638876727        0.2819142501397813    
     1.731686564240550        0.2783540776308813    
     1.737201489604374        0.2748329610329089    
     1.742716414968197        0.2713505544579146    
     1.748231340332020        0.2679065119390802    
     1.753746265695844        0.2645004875491730    
     1.759261191059667        0.2611321355145116    
     1.764776116423491        0.2578011103242352    
     1.770291041787314        0.2545070668352883    
     1.775805967151137        0.2512496603730573    
     1.781320892514961        0.2480285468280738    
     1.786835817878784        0.2448433827485281    
     1.792350743242608        0.2416938254290208    
     1.797865668606431        0.2385795329954510    
     1.803380593970255        0.2355001644864791    
     1.808895519334078        0.2324553799312500    
     1.814410444697901        0.2294448404238252    
     1.819925370061725        0.2264682081941900    
     1.825440295425548        0.2235251466762862    
     1.830955220789372        0.2206153205727136    
     1.836470146153195        0.2177383959165637    
     1.841985071517019        0.2148940401302113    
     1.847499996880842        0.2120819220815501    
     1.853014922244665        0.2093017121372522    
     1.858529847608489        0.2065530822135403    
     1.864044772972312        0.2038357058242635    
     1.869559698336136        0.2011492581267818    
     1.875074623699959        0.1984934159652028    
     1.880589549063782        0.1958678579114620    
     1.886104474427606        0.1932722643040195    
     1.891619399791429        0.1907063172846855    
     1.897134325155253        0.1881697008330937    
     1.902649250519076        0.1856621007992871    
     1.908164175882899        0.1831832049343592    
     1.913679101246723        0.1807327029190937    
     1.919194026610546        0.1783102863910720    
     1.924708951974370        0.1759156489697356    
     1.930223877338193        0.1735484862799259    
     1.935738802702016        0.1712084959736206    
     1.941253728065840        0.1688953777504004    
     1.946768653429663        0.1666088333760860    
     1.952283578793487        0.1643485667000797    
     1.957798504157310        0.1621142836711118    
     1.963313429521133        0.1599056923519302    
     1.968828354884957        0.1577225029323727    
     1.974343280248780        0.1555644277413017    
     1.979858205612604        0.1534311812573145    
     1.985373130976427        0.1513224801181256    
     1.990888056340250        0.1492380431291242    
     1.996402981704074        0.1471775912705123    
     2.001917907067897        0.1451408477035668    
     2.007432832431721        0.1431275377756977    
     2.012947757795544        0.1411373890248444    
     2.018462683159367        0.1391701311826163    
     2.023977608523191        0.1372254961766635    
     2.029492533887014        0.1353032181321741    
     2.035007459250838        0.1334030333723759    
     2.040522384614661        0.1315246804185504    
     2.046037309978484        0.1296678999889399    
     2.051552235342308        0.1278324349970886    
     2.057067160706131        0.1260180305492803    
     2.062582086069955        0.1242244339415921    
     2.068097011433778        0.1224513946559867    
     2.073611936797601        0.1206986643558989    
     2.079126862161425        0.1189659968812101    
     2.084641787525249        0.1172531482424834    
     2.090156712889072        0.1155598766149472    
     2.095671638252895        0.1138859423316254    
     2.101186563616718        0.1122311078760940    
     2.106701488980542        0.1105951378747355    
     2.112216414344366        0.1089777990883756    
     2.117731339708189        0.1073788604037642    
     2.123246265072012        0.1057980928243131    
     2.128761190435835        0.1042352694605620    
     2.134276115799659        0.1026901655202390    
     2.139791041163483        0.1011625582978087    
     2.145305966527306        0.9965222716393754E-01
     2.150820891891129        0.9815895355431946E-01
     2.156335817254952        0.9668252095831198E-01
     2.161850742618776        0.9522271490724865E-01
     2.167365667982600        0.9377932296232933E-01
     2.172880593346423        0.9235213470248793E-01
     2.178395518710246        0.9094094171171217E-01
     2.183910444074070        0.8954553756626440E-01
     2.189425369437893        0.8816571782150424E-01
     2.194940294801717        0.8680127999873123E-01
     2.200455220165540        0.8545202357156455E-01
     2.205970145529363        0.8411774995222440E-01
     2.211485070893187        0.8279826247762020E-01
     2.216999996257010        0.8149336639513373E-01
     2.222514921620834        0.8020286884846665E-01
     2.228029846984657        0.7892657886309438E-01
     2.233544772348480        0.7766430733167082E-01
     2.239059697712304        0.7641586699929168E-01
     2.244574623076127        0.7518107244851477E-01
     2.250089548439951        0.7395974008447134E-01
     2.255604473803774        0.7275168811965430E-01
     2.261119399167598        0.7155673655869288E-01
     2.266634324531421        0.7037470718301203E-01
     2.272149249895244        0.6920542353541595E-01
     2.277664175259068        0.6804871090449802E-01
     2.283179100622891        0.6690439630917050E-01
     2.288694025986715        0.6577230848292372E-01
     2.294208951350538        0.6465227785812422E-01
     2.299723876714361        0.6354413655025386E-01
     2.305238802078185        0.6244771834201502E-01
     2.310753727442008        0.6136285866757778E-01
     2.316268652805832        0.6028939459660450E-01
     2.321783578169655        0.5922716481833657E-01
     2.327298503533478        0.5817600962565440E-01
     2.332813428897302        0.5713577089903725E-01
     2.338328354261125        0.5610629209068139E-01
     2.343843279624949        0.5508741820843869E-01
     2.349358204988772        0.5407899579983522E-01
     2.354873130352595        0.5308087293609014E-01
     2.360388055716419        0.5209289919606212E-01
     2.365902981080242        0.5111492565036826E-01
     2.371417906444066        0.5014680484535907E-01
     2.376932831807889        0.4918839078718763E-01
     2.382447757171712        0.4823953892588664E-01
     2.387962682535536        0.4730010613948658E-01
     2.393477607899359        0.4636995071808993E-01
     2.398992533263183        0.4544893234813398E-01
     2.404507458627006        0.4453691209653300E-01
     2.410022383990829        0.4363375239493647E-01
     2.415537309354653        0.4273931702403136E-01
     2.421052234718476        0.4185347109781083E-01
     2.426567160082300        0.4097608104805228E-01
     2.432082085446123        0.4010701460868756E-01
     2.437597010809947        0.3924614080030132E-01
     2.443111936173770        0.3839332991467195E-01
     2.448626861537593        0.3754845349938366E-01
     2.454141786901417        0.3671138434242127E-01
     2.459656712265240        0.3588199645699103E-01
     2.465171637629064        0.3506016506623674E-01
     2.470686562992887        0.3424576658810460E-01
     2.476201488356710        0.3343867862027501E-01
     2.481716413720534        0.3263877992507602E-01
     2.487231339084357        0.3184595041464430E-01
     2.492746264448181        0.3106007113598190E-01
     2.498261189812004        0.3028102425616920E-01
     2.503776115175827        0.2950869304763511E-01
     2.509291040539651        0.2874296187351879E-01
     2.514805965903474        0.2798371617301719E-01
     2.520320891267298        0.2723084244699573E-01
     2.525835816631121        0.2648422824348773E-01
     2.531350741994944        0.2574376214336300E-01
     2.536865667358768        0.2500933374605723E-01
     2.542380592722591        0.2428083365539728E-01
     2.547895518086415        0.2355815346541575E-01
     2.553410443450238        0.2284118574643506E-01
     2.558925368814061        0.2212982403103740E-01
     2.564440294177885        0.2142396280021091E-01
     2.569955219541708        0.2072349746957696E-01
     2.575470144905532        0.2002832437560085E-01
     2.580985070269355        0.1933834076207898E-01
     2.586499995633178        0.1865344476651565E-01
     2.592014920997002        0.1797353540667097E-01
     2.597529846360825        0.1729851256717317E-01
     2.603044771724649        0.1662827698622851E-01
     2.608559697088472        0.1596273024231980E-01
     2.614074622452295        0.1530177474117327E-01
     2.619589547816119        0.1464531370261943E-01
     2.625104473179942        0.1399325114762312E-01
     2.630619398543766        0.1334549188537543E-01
     2.636134323907589        0.1270194150052340E-01
     2.641649249271413        0.1206250634017638E-01
     2.647164174635236        0.1142709350160583E-01
     2.652679099999059        0.1079561081941400E-01
     2.658194025362883        0.1016796685307187E-01
     2.663708950726706        0.9544070874479116E-02
     2.669223876090530        0.8923832855290578E-02
     2.674738801454353        0.8307163455916733E-02
     2.680253726818176        0.7693974011377674E-02
     2.685768652182000        0.7084176520382673E-02
     2.691283577545823        0.6477683632984428E-02
     2.696798502909647        0.5874408638590832E-02
     2.702313428273470        0.5274265427016370E-02
     2.707828353637293        0.4677168587009017E-02
     2.713343279001117        0.4083033233763638E-02
     2.718858204364941        0.3491775096108769E-02
     2.724373129728764        0.2903310481641742E-02
     2.729888055092587        0.2317556264531363E-02
     2.735402980456410        0.1734426892484736E-02
     2.740917905820234        0.1153846058269681E-02
     2.746432831184058        0.5757305570473235E-03
     2.751947756547881         0.000000000000000    
  0  5  1  0  1.000000   #orbital l, n, z, is_polarized, population
 500    0.1426018332927206E-01     7.115831481306760     # npts, delta, cutoff
     0.000000000000000        0.5899034436032032E-01
    0.1426018332927206E-01    0.5938030398518614E-01
    0.2852036665854413E-01    0.6054846366786606E-01
    0.4278054998781619E-01    0.6248867763690727E-01
    0.5704073331708825E-01    0.6519093875372975E-01
    0.7130091664636032E-01    0.6864137310124738E-01
    0.8556109997563238E-01    0.7282236355587833E-01
    0.9982128330490445E-01    0.7771269473024858E-01