<preamble>

<basis_specs>
===============================================================================
S                    Z=  16    Mass=  32.070        Charge= 0.17977+309
Lmxo=2 Lmxkb= 2    BasisType=nodes      Semic=F
L=0  Nsemic=1  Cnfigmx=4
          i=1  nzeta=2  polorb=0  (3s)
            splnorm:   0.15000    
               vcte:    0.0000    
               rinn:    0.0000    
               qcoe:    0.0000    
               qyuk:    0.0000    
               qwid:   0.10000E-01
                rcs:    4.1677      4.1677    
            lambdas:    1.0000      1.0000    
          i=2  nzeta=1  polorb=0  (4s)  (higher-lying shell (n> n_valence(l)))
            splnorm:   0.15000    
               vcte:    0.0000    
               rinn:    0.0000    
               qcoe:    0.0000    
               qyuk:    0.0000    
               qwid:   0.10000E-01
                rcs:    7.9836    
            lambdas:    1.0000    
L=1  Nsemic=0  Cnfigmx=3
          i=1  nzeta=2  polorb=1  (3p)  (to be polarized perturbatively)
            splnorm:   0.15000    
               vcte:    0.0000    
               rinn:    0.0000    
               qcoe:    0.0000    
               qyuk:    0.0000    
               qwid:   0.10000E-01
                rcs:    5.0905      5.0905    
            lambdas:    1.0000      1.0000    
L=2  Nsemic=0  Cnfigmx=3
          i=1  nzeta=0  polorb=0  (3d)  (perturbative polarization orbital) (from 3p)
-------------------------------------------------------------------------------
L=0  Nkbl=2  erefs: 0.17977+309 0.17977+309
L=1  Nkbl=1  erefs: 0.17977+309
L=2  Nkbl=1  erefs: 0.17977+309
===============================================================================
</basis_specs>

<pseudopotential_header>
 S  pb nrl pcec
 ONCVPSP-3.2017-10-31Hamann's oncvpsp                        
 3s 2.00  r= 1.45/3p 4.00  r= 1.45/3d 0.00  r= 1.62/                    3s:3p:
</pseudopotential_header>
</preamble>
S                             # Symbol
S                             # Label
   16                         # Atomic number
     6.00000000000                             # Valence charge
     32.0700000000        # Mass 
     39.7104194823        # Self energy 
   2   6                      # Lmax for basis, no. of nl orbitals 
   2   6                      # Lmax for projectors, no. of nl KB projectors
# PAOs:__________________________
  0  3  1  0  2.000000   #orbital l, n, z, is_polarized, population
 500    0.8352185907909388E-02     4.167740768046785     # npts, delta, cutoff
     0.000000000000000        0.8620243446682004E-01
    0.8352185907909388E-02    0.8630950253992536E-01
    0.1670437181581878E-01    0.8663110434615284E-01
    0.2505655772372816E-01    0.8716677440085138E-01
    0.3340874363163755E-01    0.8791601416207054E-01
    0.4176092953954694E-01    0.8887812755378290E-01
    0.5011311544745633E-01    0.9005222281162978E-01
    0.5846530135536572E-01    0.9143721483662764E-01
    0.6681748726327510E-01    0.9303182803241471E-01
    0.7516967317118449E-01    0.9483459960206619E-01
    0.8352185907909387E-01    0.9684388327739224E-01
    0.9187404498700327E-01    0.9905785345048286E-01
    0.1002262308949127        0.1014745096744196    
    0.1085784168028220        0.1040916814976039    
    0.1169306027107314        0.1069070335940752    
    0.1252827886186408        0.1099180711505561    
    0.1336349745265502        0.1131221454697433    
    0.1419871604344596        0.1165164597486064    
    0.1503393463423690        0.1200980749901410    
    0.1586915322502784        0.1238639160071628    
    0.1670437181581877        0.1278107774773034    
    0.1753959040660971        0.1319353300093922    
    0.1837480899740065        0.1362341261828369    
    0.1921002758819159        0.1407036065234590    
    0.2004524617898253        0.1453401053814474    
    0.2088046476977347        0.1501398566796598    
    0.2171568336056441        0.1550989995033777    
    0.2255090195135535        0.1602135835057837    
    0.2338612054214629        0.1654795741068296    
    0.2422133913293723        0.1708928574667616    
    0.2505655772372816        0.1764492452193328    
    0.2589177631451910        0.1821444789535794    
    0.2672699490531004        0.1879742344369856    
    0.2756221349610098        0.1939341255767737    
    0.2839743208689192        0.2000197081199870    
    0.2923265067768286        0.2062264830968285    
    0.3006786926847380        0.2125499000154369    
    0.3090308785926474        0.2189853598197770    
    0.3173830645005568        0.2255282176256585    
    0.3257352504084661        0.2321737852529221    
    0.3340874363163755        0.2389173335746232    
    0.3424396222242849        0.2457540947064686    
    0.3507918081321943        0.2526792640618676    
    0.3591439940401037        0.2596880022996851    
    0.3674961799480131        0.2667754371930980    
    0.3758483658559225        0.2739366654489097    
    0.3842005517638318        0.2811667545071656    
    0.3925527376717413        0.2884607443510149    
    0.4009049235796506        0.2958136493564562    
    0.4092571094875600        0.3032204602108392    
    0.4176092953954694        0.3106761459278958    
    0.4259614813033788        0.3181756559855519    
    0.4343136672112882        0.3257139226108778    
    0.4426658531191976        0.3332858632343508    
    0.4510180390271070        0.3408863831330808    
    0.4593702249350163        0.3485103782798421    
    0.4677224108429258        0.3561527384117505    
    0.4760745967508351        0.3638083503292009    
    0.4844267826587445        0.3714721014322608    
    0.4927789685666539        0.3791388834982948    
    0.5011311544745632        0.3868035967009389    
    0.5094833403824727        0.3944611538670499    
    0.5178355262903821        0.4021064849645996    
    0.5261877121982914        0.4097345418110765    
    0.5345398981062008        0.4173403029884687    
    0.5428920840141103        0.4249187789477535    
    0.5512442699220196        0.4324650172827013    
    0.5595964558299290        0.4399741081500496    
    0.5679486417378384        0.4474411898104734    
    0.5763008276457477        0.4548614542626167    
    0.5846530135536572        0.4622301529404190    
    0.5930051994615666        0.4695426024424825    
    0.6013573853694759        0.4767941902609031    
    0.6097095712773853        0.4839803804762610    
    0.6180617571852948        0.4910967193848949    
    0.6264139430932041        0.4981388410246521    
    0.6347661290011135        0.5051024725655398    
    0.6431183149090229        0.5119834395324794    
    0.6514705008169323        0.5187776708284789    
    0.6598226867248417        0.5254812035279557    
    0.6681748726327510        0.5320901874118081    
    0.6765270585406604        0.5386008892178974    
    0.6848792444485698        0.5450096965830763    
    0.6932314303564792        0.5513131216555232    
    0.7015836162643886        0.5575078043590630    
    0.7099358021722980        0.5635905152942380    
    0.7182879880802073        0.5695581582640773    
    0.7266401739881168        0.5754077724158789    
    0.7349923598960262        0.5811365339936938    
    0.7433445458039355        0.5867417576995553    
    0.7516967317118449        0.5922208976649540    
    0.7600489176197543        0.5975715480372763    
    0.7684011035276637        0.6027914431891537    
    0.7767532894355731        0.6078784575617613    
    0.7851054753434825        0.6128306051558752    
    0.7934576612513918        0.6176460386872378    
    0.8018098471593013        0.6223230484251779    
    0.8101620330672107        0.6268600607355280    
    0.8185142189751200        0.6312556363508203    
    0.8268664048830294        0.6355084683922978    
    0.8352185907909389        0.6396173801695085    
    0.8435707766988482        0.6435813227842558    
    0.8519229626067576        0.6473993725663404    
    0.8602751485146670        0.6510707283687975    
    0.8686273344225763        0.6545947087504512    
    0.8769795203304858        0.6579707490733557    
    0.8853317062383952        0.6611983985421105    
    0.8936838921463045        0.6642773172113504    
    0.9020360780542139        0.6672072729865594    
    0.9103882639621234        0.6699881386421933    
    0.9187404498700327        0.6726198888795227    
    0.9270926357779421        0.6751025974450191    
    0.9354448216858515        0.6774364343281261    
    0.9437970075937608        0.6796216630556037    
    0.9521491935016703        0.6816586380945067    
    0.9605013794095796        0.6835478024071213    
    0.9688535653174890        0.6852896849768081    
    0.9772057512253984        0.6868848989266527    
    0.9855579371333077        0.6883341391377296    
    0.9939101230412172        0.6896381783478576    
     1.002262308949126        0.6907978679572733    
     1.010614494857036        0.6918141370804929    
     1.018966680764945        0.6926879896380604    
     1.027318866672855        0.6934205034233537    
     1.035671052580764        0.6940128288181673    
     1.044023238488674        0.6944661876562378    
     1.052375424396583        0.6947818721946131    
     1.060727610304492        0.6949612441518740    
     1.069079796212402        0.6950057338021465    
     1.077431982120311        0.6949168391036820    
     1.085784168028221        0.6946961248406496    
     1.094136353936130        0.6943452217572150    
     1.102488539844039        0.6938658256608210    
     1.110840725751949        0.6932596964734782    
     1.119192911659858        0.6925286572090908    
     1.127545097567767        0.6916745928553899    
     1.135897283475677        0.6906994491416829    
     1.144249469383586        0.6896052311727215    
     1.152601655291495        0.6883940019130310    
     1.160953841199405        0.6870678805065009    
     1.169306027107314        0.6856290404186188    
     1.177658213015224        0.6840797073920863    
     1.186010398923133        0.6824221572077742    
     1.194362584831042        0.6806587132472560    
     1.202714770738952        0.6787917438642499    
     1.211066956646861        0.6768236594967824    
     1.219419142554771        0.6747569096795138    
     1.227771328462680        0.6725939801246520    
     1.236123514370590        0.6703373885842707    
     1.244475700278499        0.6679896809590188    
     1.252827886186408        0.6655534307668666    
     1.261180072094318        0.6630312349115405    
     1.269532258002227        0.6604257035449911    
     1.277884443910136        0.6577394572276498    
     1.286236629818046        0.6549751290373513    
     1.294588815725955        0.6521353591154556    
     1.302941001633865        0.6492227873371862    
     1.311293187541774        0.6462400501979561    
     1.319645373449683        0.6431897775015479    
     1.327997559357593        0.6400745879190075    
     1.336349745265502        0.6368970850655918    
     1.344701931173411        0.6336598538260463    
     1.353054117081321        0.6303654567503206    
     1.361406302989230        0.6270164306488274    
     1.369758488897140        0.6236152834020895    
     1.378110674805049        0.6201644910066315    
     1.386462860712958        0.6166664948729615    
     1.394815046620868        0.6131236993968038    
     1.403167232528777        0.6095384698498827    
     1.411519418436687        0.6059131306649859    
     1.419871604344596        0.6022499633994453    
     1.428223790252505        0.5985512060258966    
     1.436575976160415        0.5948190527605023    
     1.444928162068324        0.5910556517634608    
     1.453280347976234        0.5872631072894675    
     1.461632533884143        0.5834434775288247    
     1.469984719792052        0.5795987642150063    
     1.478336905699962        0.5757309110855302    
     1.486689091607871        0.5718418023050376    
     1.495041277515780        0.5679332598807657    
     1.503393463423690        0.5640070485214028    
     1.511745649331599        0.5600648764849614    
     1.520097835239509        0.5561083980192645    
     1.528450021147418        0.5521392125664363    
     1.536802207055327        0.5481588670738928    
     1.545154392963237        0.5441688574053789    
     1.553506578871146        0.5401706295601730    
     1.561858764779056        0.5361655807943230    
     1.570210950686965        0.5321550608925967    
     1.578563136594874        0.5281403733436445    
     1.586915322502784        0.5241227765560694    
     1.595267508410693        0.5201034849961853    
     1.603619694318603        0.5160836703166496    
     1.611971880226512        0.5120644624718685    
     1.620324066134421        0.5080469508093755    
     1.628676252042331        0.5040321851393753    
     1.637028437950240        0.5000211767844481    
     1.645380623858149        0.4960148996087579    
     1.653732809766059        0.4920142910272131    
     1.662084995673968        0.4880202529947558    
     1.670437181581878        0.4840336529758583    
     1.678789367489787        0.4800553248944779    
     1.687141553397696        0.4760860700647064    
     1.695493739305606        0.4721266581021076    
     1.703845925213515        0.4681778278161192    
     1.712198111121425        0.4642402880835121    
     1.720550297029334        0.4603147187031491    
     1.728902482937243        0.4564017712322509    
     1.737254668845153        0.4525020698042160    
     1.745606854753062        0.4486162119283085    
     1.753959040660972        0.4447447692712767    
     1.762311226568881        0.4408882884211336    
     1.770663412476790        0.4370472916332983    
     1.779015598384700        0.4332222775592369    
     1.787367784292609        0.4294137219578489    
     1.795719970200518        0.4256220783897680    
     1.804072156108428        0.4218477788948014    
     1.812424342016337        0.4180912346527078    
     1.820776527924247        0.4143528366275435    
     1.829128713832156        0.4106329561958055    
     1.837480899740065        0.4069319457585686    
     1.845833085647975        0.4032501393379035    
     1.854185271555884        0.3995878531577891    
     1.862537457463794        0.3959453862097372    
     1.870889643371703        0.3923230208034677    
     1.879241829279612        0.3887210231027690    
     1.887594015187522        0.3851396436469103    
     1.895946201095431        0.3815791178578418    
     1.904298387003341        0.3780396665333711    
     1.912650572911250        0.3745214963267099    
     1.921002758819159        0.3710248002126069    
     1.929354944727069        0.3675497579402736    
     1.937707130634978        0.3640965364735098    
     1.946059316542887        0.3606652904182427    
     1.954411502450797        0.3572561624376857    
     1.962763688358706        0.3538692836555399    
     1.971115874266615        0.3505047740474414    
     1.979468060174525        0.3471627428208651    
     1.987820246082434        0.3438432887839108    
     1.996172431990344        0.3405465007031625    
     2.004524617898253        0.3372724576508374    
     2.012876803806162        0.3340212293416411    
     2.021228989714072        0.3307928764595152    
     2.029581175621981        0.3275874509744898    
     2.037933361529891        0.3244049964500444    
     2.046285547437800        0.3212455483411565    
     2.054637733345710        0.3181091342832488    
     2.062989919253619        0.3149957743724135    
     2.071342105161528        0.3119054814370918    
     2.079694291069438        0.3088382613014114    
     2.088046476977347        0.3057941130405342    
     2.096398662885256        0.3027730292281888    
     2.104750848793166        0.2997749961765825    
     2.113103034701075        0.2967999941690152    
     2.121455220608985        0.2938479976853609    
     2.129807406516894        0.2909189756206169    
     2.138159592424803        0.2880128914967903    
     2.146511778332713        0.2851297036682955    
     2.154863964240622        0.2822693655210525    
     2.163216150148532        0.2794318256655195    
     2.171568336056441        0.2766170281238206    
     2.179920521964350        0.2738249125111739    
     2.188272707872259        0.2710554142117863    
     2.196624893780169        0.2683084645493992    
     2.204977079688078        0.2655839909526408    
     2.213329265595988        0.2628819171153833    
     2.221681451503897        0.2602021631522187    
     2.230033637411807        0.2575446457492118    
     2.238385823319716        0.2549092783101481    
     2.246738009227625        0.2522959710983165    
     2.255090195135535        0.2497046313739964    
     2.263442381043444        0.2471351635278753    
     2.271794566951354        0.2445874692103697    
     2.280146752859263        0.2420614474570872    
     2.288498938767172        0.2395569948104638    
     2.296851124675082        0.2370740054378317    
     2.305203310582991        0.2346123712458394    
     2.313555496490900        0.2321719819914071    
     2.321907682398810        0.2297527253894524    
     2.330259868306719        0.2273544872172343    
     2.338612054214629        0.2249771514155987    
     2.346964240122538        0.2226206001870890    
     2.355316426030448        0.2202847140911996    
     2.363668611938357        0.2179693721365958    
     2.372020797846266        0.2156744518705018    
     2.380372983754176        0.2133998294654893    
     2.388725169662085        0.2111453798034275    
     2.397077355569994        0.2089109765569091    
     2.405429541477904        0.2066964922680612    
     2.413781727385813        0.2045017984250349    
     2.422133913293723        0.2023267655359356    
     2.430486099201632        0.2001712632004054    
     2.438838285109541        0.1980351601790647    
     2.447190471017451        0.1959183244605615    
     2.455542656925360        0.1938206233265241    
     2.463894842833270        0.1917419234143111    
     2.472247028741179        0.1896820907778363    
     2.480599214649088        0.1876409909462239    
     2.488951400556997        0.1856184889805667    
     2.497303586464907        0.1836144495287040    
     2.505655772372816        0.1816287368782346    
     2.514007958280726        0.1796612150075873    
     2.522360144188635        0.1777117476353208    
     2.530712330096545        0.1757801982677681    
     2.539064516004454        0.1738664302448936    
     2.547416701912363        0.1719703067845401    
     2.555768887820273        0.1700916910250335    
     2.564121073728182        0.1682304460662718    
     2.572473259636092        0.1663864350092320    
     2.580825445544001        0.1645595209940144    
     2.589177631451910        0.1627495672364226    
     2.597529817359820        0.1609564370631603    
     2.605882003267729        0.1591799939456301    
     2.614234189175638        0.1574201015324113    
     2.622586375083548        0.1556766236804460    
     2.630938560991457        0.1539494244849541    
     2.639290746899367        0.1522383683081396    
     2.647642932807276        0.1505433198067025    
     2.655995118715186        0.1488641439582165    
     2.664347304623095        0.1472007060863569    
     2.672699490531004        0.1455528718850830    
     2.681051676438913        0.1439205074417521    
     2.689403862346823        0.1423034792592420    
     2.697756048254732        0.1407016542770464    
     2.706108234162642        0.1391148998914668    
     2.714460420070551        0.1375430839748594    
     2.722812605978461        0.1359860748940154    
     2.731164791886370        0.1344437415276407    
     2.739516977794279        0.1329159532830493    
     2.747869163702189        0.1314025801120319    
     2.756221349610098        0.1299034925259646    
     2.764573535518008        0.1284185616101473    
     2.772925721425917        0.1269476590374451    
     2.781277907333826        0.1254906570812221    
     2.789630093241735        0.1240474286276040    
     2.797982279149645        0.1226178471870998    
     2.806334465057554        0.1212017869055916    
     2.814686650965464        0.1197991225747302    
     2.823038836873373        0.1184097296417275    
     2.831391022781283        0.1170334842186360    
     2.839743208689192        0.1156702630910419    
     2.848095394597101        0.1143199437262681    
     2.856447580505011        0.1129824042810253    
     2.864799766412920        0.1116575236086738    
     2.873151952320829        0.1103451812659272    
     2.881504138228739        0.1090452575191469    
     2.889856324136648        0.1077576333502044    
     2.898208510044558        0.1064821904618684    
     2.906560695952467        0.1052188112829116    
     2.914912881860376        0.1039673789726968    
     2.923265067768286        0.1027277774254626    
     2.931617253676195        0.1014998912741551    
     2.939969439584105        0.1002836058940724    
     2.948321625492014        0.9907880740600332E-01
     2.956673811399924        0.9788538267913000E-01
     2.965025997307833        0.9670321933351360E-01
     2.973378183215742        0.9553220574244546E-01
     2.981730369123651        0.9437223103433363E-01
     2.990082555031561        0.9322318509437630E-01
     2.998434740939470        0.9208495856595668E-01
     3.006786926847380        0.9095744285169158E-01
     3.015139112755289        0.8984053011438445E-01
     3.023491298663199        0.8873411327755663E-01
     3.031843484571108        0.8763808602582800E-01
     3.040195670479017        0.8655234280497714E-01
     3.048547856386927        0.8547677882191276E-01
     3.056900042294836        0.8441129004428788E-01
     3.065252228202745        0.8335577319996137E-01
     3.073604414110655        0.8231012577624922E-01
     3.081956600018564        0.8127424601893092E-01
     3.090308785926474        0.8024803293115783E-01
     3.098660971834383        0.7923138627207767E-01
     3.107013157742292        0.7822420655532959E-01
     3.115365343650202        0.7722639504733275E-01
     3.123717529558111        0.7623785376545454E-01
     3.132069715466021        0.7525848547597200E-01
     3.140421901373930        0.7428819369189789E-01
     3.148774087281839        0.7332688267065295E-01
     3.157126273189749        0.7237445741159589E-01
     3.165478459097658        0.7143082365341193E-01
     3.173830645005567        0.7049588787137177E-01
     3.182182830913477        0.6956955727446230E-01
     3.190535016821386        0.6865173980239057E-01
     3.198887202729296        0.6774234412249831E-01
     3.207239388637205        0.6684127962650885E-01
     3.215591574545114        0.6594845642722448E-01
     3.223943760453024        0.6506378535509610E-01
     3.232295946360933        0.6418717795473659E-01
     3.240648132268843        0.6331854648114692E-01
     3.249000318176752        0.6245780389627641E-01
     3.257352504084661        0.6160486386506794E-01
     3.265704689992571        0.6075964075163427E-01
     3.274056875900480        0.5992204961499979E-01
     3.282409061808389        0.5909200620656588E-01
     3.290761247716299        0.5826942696361043E-01
     3.299113433624208        0.5745422900677936E-01
     3.307465619532118        0.5664633013694888E-01
     3.315817805440027        0.5584564882507242E-01
     3.324169991347937        0.5505210421675711E-01
     3.332522177255846        0.5426561612261560E-01
     3.340874363163755        0.5348610501501518E-01
     3.349226549071665        0.5271349202134856E-01
     3.357578734979574        0.5194769892889662E-01
     3.365930920887483        0.5118864816615314E-01
     3.374283106795393        0.5043626280668153E-01
     3.382635292703302        0.4969046656261419E-01
     3.390987478611212        0.4895118378078728E-01
     3.399339664519121        0.4821833943493249E-01
     3.407691850427030        0.4749185912583651E-01
     3.416044036334940        0.4677166907389876E-01
     3.424396222242849        0.4605769611518621E-01
     3.432748408150759        0.4534986769686514E-01
     3.441100594058668        0.4464811187454785E-01
     3.449452779966578        0.4395235729906238E-01
     3.457804965874486        0.4326253322587609E-01
     3.466157151782396        0.4257856950114130E-01
     3.474509337690305        0.4190039655916578E-01
     3.482861523598215        0.4122794541509763E-01
     3.491213709506124        0.4056114767119956E-01
     3.499565895414034        0.3989993549423878E-01
     3.507918081321943        0.3924424162211628E-01
     3.516270267229852        0.3859399935626057E-01
     3.524622453137762        0.3794914255761575E-01
     3.532974639045671        0.3730960563797554E-01
     3.541326824953581        0.3667532356102175E-01
     3.549679010861490        0.3604623183371986E-01
     3.558031196769399        0.3542226650235028E-01
     3.566383382677309        0.3480336414792706E-01
     3.574735568585218        0.3418946188035061E-01
     3.583087754493127        0.3358049733515543E-01
     3.591439940401037        0.3297640866774120E-01
     3.599792126308946        0.3237713454879447E-01
     3.608144312216856        0.3178261415949824E-01
     3.616496498124765        0.3119278718657762E-01
     3.624848684032675        0.3060759381827585E-01
     3.633200869940584        0.3002697473838223E-01
     3.641553055848493        0.2945087112226489E-01
     3.649905241756402        0.2887922463193609E-01
     3.658257427664312        0.2831197741135097E-01
     3.666609613572221        0.2774907208154286E-01
     3.674961799480131        0.2719045173613523E-01
     3.683313985388040        0.2663605993650859E-01
     3.691666171295950        0.2608584070715348E-01
     3.700018357203859        0.2553973853100664E-01
     3.708370543111768        0.2499769834480346E-01
     3.716722729019678        0.2445966553444246E-01
     3.725074914927587        0.2392558593037522E-01
     3.733427100835497        0.2339540580300421E-01
     3.741779286743406        0.2286907185810259E-01
     3.750131472651315        0.2234653123225475E-01
     3.758483658559225        0.2182773148829579E-01
     3.766835844467134        0.2131262061080884E-01
     3.775188030375043        0.2080114700160262E-01
     3.783540216282953        0.2029325947522675E-01
     3.791892402190862        0.1978890725450307E-01
     3.800244588098772        0.1928803996608013E-01
     3.808596774006681        0.1879060763598998E-01
     3.816948959914590        0.1829656068526237E-01
     3.825301145822500        0.1780584992552213E-01
     3.833653331730409        0.1731842655462545E-01
     3.842005517638318        0.1683424215231372E-01
     3.850357703546228        0.1635324867589127E-01
     3.858709889454137        0.1587539845590877E-01
     3.867062075362047        0.1540064419190154E-01
     3.875414261269956        0.1492893894811497E-01
     3.883766447177865        0.1446023614926873E-01
     3.892118633085775        0.1399448957634271E-01
     3.900470818993684        0.1353165336236846E-01
     3.908823004901594        0.1307168198827561E-01
     3.917175190809503        0.1261453027872819E-01
     3.925527376717413        0.1216015339799823E-01
     3.933879562625322        0.1170850684585884E-01
     3.942231748533231        0.1125954645350226E-01
     3.950583934441140        0.1081322837946528E-01
     3.958936120349050        0.1036950910560744E-01
     3.967288306256959        0.9928345433081359E-02
     3.975640492164869        0.9489694478339845E-02
     3.983992678072778        0.9053513669162534E-02
     3.992344863980688        0.8619760740718997E-02
     4.000697049888597        0.8188393731580219E-02
     4.009049235796506        0.7759370979903116E-02
     4.017401421704416        0.7332651119487715E-02
     4.025753607612325        0.6908193075928539E-02
     4.034105793520235        0.6485956062773911E-02
     4.042457979428144        0.6065899577681763E-02
     4.050810165336054        0.5647983398731943E-02
     4.059162351243963        0.5232167580488431E-02
     4.067514537151872        0.4818412450349452E-02
     4.075866723059781        0.4406678604793120E-02
     4.084218908967690        0.3996926905668286E-02
     4.092571094875600        0.3589118468708058E-02
     4.100923280783509        0.3183214691703473E-02
     4.109275466691419        0.2779177204491707E-02
     4.117627652599328        0.2376967893859059E-02
     4.125979838507238        0.1976548893231852E-02
     4.134332024415147        0.1577882578907602E-02
     4.142684210323057        0.1180930645064833E-02
     4.151036396230966        0.7856577108323781E-03
     4.159388582138876        0.3920263313932465E-03
     4.167740768046785         0.000000000000000    
  0  3  2  0  0.000000   #orbital l, n, z, is_polarized, population
 500    0.8352185907909388E-02     4.167740768046785     # npts, delta, cutoff
     0.000000000000000        0.9176746555389673E-01
    0.8352185907909388E-02    0.9187883723133737E-01
    0.1670437181581878E-01    0.9221335246010597E-01
    0.2505655772372816E-01    0.9277044667539544E-01
    0.3340874363163755E-01    0.9354947457151337E-01
    0.4176092953954694E-01    0.9454953569869644E-01
    0.5011311544745633E-01    0.9576947736937289E-01
    0.5846530135536572E-01    0.9720789832993003E-01
    0.6681748726327510E-01    0.9886315314268967E-01
    0.7516967317118449E-01    0.1007333572205532    
    0.8352185907909387E-01    0.1028163924523953    
    0.9187404498700327E-01    0.1051099133544071    
    0.1002262308949127        0.1076113536813319    
    0.1085784168028220        0.1103179334316925    
    0.1169306027107314        0.1132266661823804    