<?xml version="1.0" encoding="UTF-8" ?>
<psml version="1.1" energy_unit="hartree" length_unit="bohr"
 uuid="1fa1ca70-c73e-11ed-7b73-f832edff02a3"
 xmlns="http://esl.cecam.org/PSML/ns/1.1">
<provenance creator="ONCVPSP-4.0.1+psml-4.0.1-76 (scalar-relativistic)"
 date="2023-03-20">
<annotation action="semilocal-pseudopotential-generation"
 action-cont="projectors-generation" />
<input-file name="oncvpsp-input">
<![CDATA[# atsym z nc nv iexc psfile
S 16 3 2 4 both
# n l f
1 0 2.0
2 0 2.0
2 1 6.0
3 0 2.0
3 1 4.0
# lmax
2
# l rc ep ncon nbas qcut
0 1.45 0.0 4 9 6.3
1 1.45 0.0 4 9 7.6
2 1.45 0.05 4 9 7.2
# lloc lpopt rc5 dvloc0
4 5 1.4 0.0
# l nproj debl
0 2 2.0
1 2 2.0
2 2 1.0
# icmod fcfact
3 6 1.25
# epsh1 epsh2 depsh
-12.0 12.0 0.02
# rlmax drl
6.0 0.01
 0
]]>
</input-file>
</provenance>
<pseudo-atom-spec atomic-label="S" atomic-number="16" z-pseudo="6"
 flavor="Hamann&apos;s oncvpsp" relativity="scalar" spin-dft="no"
 core-corrections="yes">
<annotation pseudo-energy="-10.1080233505" cutoff_hint_low="72"
 cutoff_hint_normal="147" cutoff_hint_high="162" />
<exchange-correlation>
<annotation oncvpsp-xc-code="4" oncvpsp-xc-type="GGA -- Perdew-Burke-Ernzerhof" />
<libxc-info number-of-functionals="2">
<functional name="Perdew, Burke &amp; Ernzerhof (GGA)" type="exchange" id="101" />
<functional name="Perdew, Burke &amp; Ernzerhof (GGA)" type="correlation"
 id="130" />
</libxc-info>
</exchange-correlation>
<valence-configuration total-valence-charge="6">
<shell n="3" l="s" occupation="2" />
<shell n="3" l="p" occupation="4" />
</valence-configuration>
</pseudo-atom-spec>
<grid npts="797">
<annotation type="sampled from oncvpsp log grid"
 recipe="r(i:1..N) = r1*exp(a*(i-1)) + r=0; resampled"
 recipe-cont="r1: scale; a: step" scale="0.312500000000E-04"
 step="0.598207167755E-02" delta="0.500000000000E-02" rmax="44.6135052876" />
<grid-data>
  0.000000000000E+00  5.018057724864E-03  1.004387771242E-02  1.508565270429E-02
  2.010329195738E-02  2.523425266604E-02  3.037580873661E-02  3.548749532264E-02
  4.072198174148E-02  4.589744596850E-02  5.111544808206E-02  5.624965508071E-02
  6.153037678491E-02  6.690542050321E-02  7.231610954468E-02  7.769817581043E-02
  8.298290047578E-02  8.809848046793E-02  9.352941649736E-02  9.870293147472E-02
  1.041626158544E-01  1.092686867783E-01  1.146250582546E-01  1.202440000631E-01
  1.253860670484E-01  1.307480273578E-01  1.363392844227E-01  1.421696437991E-01
  1.473651395268E-01  1.527505012142E-01  1.583326673873E-01  1.641188301362E-01
  1.701164443808E-01  1.752815481874E-01  1.806034757357E-01  1.860869885343E-01
  1.917369926614E-01  1.975585431544E-01  2.035568485328E-01  2.097372754576E-01
  2.148164548050E-01  2.200186359543E-01  2.253467976238E-01  2.308039906668E-01
  2.363933398185E-01  2.421180454858E-01  2.479813855791E-01  2.539867173895E-01
  2.601374795115E-01  2.664371938113E-01  2.728894674437E-01  2.794979949175E-01
  2.845592049810E-01  2.897120645296E-01  2.949582331719E-01  3.002994005691E-01
  3.057372869793E-01  3.112736438112E-01  3.169102541884E-01  3.226489335239E-01
  3.284915301043E-01  3.344399256856E-01  3.404960360990E-01  3.466618118678E-01
  3.529392388360E-01  3.593303388077E-01  3.658371701982E-01  3.724618286970E-01
  3.792064479428E-01  3.860732002108E-01  3.930642971120E-01  4.001819903060E-01
  4.074285722257E-01  4.148063768162E-01  4.223177802857E-01  4.274007970893E-01
  4.325449930830E-01  4.377511046198E-01  4.430198769150E-01  4.483520641535E-01
  4.537484295977E-01  4.592097456963E-01  4.647367941955E-01  4.703303662505E-01
  4.759912625386E-01  4.817202933746E-01  4.875182788256E-01  4.933860488296E-01
  4.993244433133E-01  5.053343123130E-01  5.114165160960E-01  5.175719252837E-01
  5.238014209764E-01  5.301058948793E-01  5.364862494301E-01  5.429433979282E-01
  5.494782646657E-01  5.560917850592E-01  5.627849057842E-01  5.695585849102E-01
  5.764137920382E-01  5.833515084391E-01  5.903727271947E-01  5.974784533392E-01
  6.046697040036E-01  6.119475085610E-01  6.193129087740E-01  6.267669589441E-01
  6.343107260619E-01  6.419452899608E-01  6.496717434708E-01  6.574911925752E-01
  6.654047565690E-01  6.734135682191E-01  6.815187739262E-01  6.897215338891E-01
  6.980230222710E-01  7.064244273671E-01  7.149269517749E-01  7.235318125664E-01
  7.322402414625E-01  7.410534850087E-01  7.499728047543E-01  7.589994774323E-01
  7.681347951427E-01  7.773800655370E-01  7.867366120058E-01  7.962057738679E-01
  8.057889065622E-01  8.154873818416E-01  8.253025879694E-01  8.352359299182E-01
  8.402473454977E-01  8.452888295707E-01  8.503605625481E-01  8.554627259234E-01
  8.605955022790E-01  8.657590752926E-01  8.709536297444E-01  8.761793515229E-01
  8.814364276320E-01  8.867250461978E-01  8.920453964750E-01  8.973976688538E-01
  9.027820548670E-01  9.081987471962E-01  9.136479396793E-01  9.191298273174E-01
  9.246446062813E-01  9.301924739190E-01  9.357736287625E-01  9.413882705351E-01
  9.470366001583E-01  9.527188197593E-01  9.584351326778E-01  9.641857434739E-01
  9.699708579347E-01  9.757906830823E-01  9.816454271808E-01  9.875352997439E-01
  9.934605115424E-01  9.994212746116E-01  1.005417802259E+00  1.011450309073E+00
  1.017519010927E+00  1.023624124993E+00  1.029765869743E+00  1.035944464961E+00
  1.042160131751E+00  1.048413092542E+00  1.054703571097E+00  1.061031792523E+00
  1.067397983279E+00  1.073802371178E+00  1.080245185405E+00  1.086726656518E+00
  1.093247016457E+00  1.099806498556E+00  1.106405337547E+00  1.113043769572E+00
  1.119722032190E+00  1.126440364383E+00  1.133199006569E+00  1.139998200608E+00
  1.146838189812E+00  1.153719218951E+00  1.160641534265E+00  1.167605383470E+00
  1.174611015771E+00  1.181658681866E+00  1.188748633957E+00  1.195881125761E+00
  1.203056412515E+00  1.210274750990E+00  1.217536399496E+00  1.224841617893E+00
  1.232190667601E+00  1.239583811606E+00  1.247021314476E+00  1.254503442363E+00
  1.262030463017E+00  1.269602645795E+00  1.277220261670E+00  1.284883583240E+00
  1.292592884739E+00  1.300348442048E+00  1.308150532700E+00  1.315999435896E+00
  1.323895432511E+00  1.331838805107E+00  1.339829837937E+00  1.347868816965E+00
  1.355956029867E+00  1.364091766046E+00  1.372276316642E+00  1.380509974542E+00
  1.388793034389E+00  1.397125792595E+00  1.405508547351E+00  1.413941598635E+00
  1.422425248227E+00  1.430959799716E+00  1.439545558515E+00  1.448182831866E+00
  1.456871928857E+00  1.465613160430E+00  1.474406839393E+00  1.483253280429E+00
  1.492152800112E+00  1.501105716912E+00  1.510112351214E+00  1.519173025321E+00
  1.528288063473E+00  1.537457791854E+00  1.546682538605E+00  1.555962633837E+00
  1.565298409640E+00  1.574690200097E+00  1.584138341298E+00  1.593643171346E+00
  1.603205030374E+00  1.612824260556E+00  1.622501206119E+00  1.632236213356E+00
  1.642029630636E+00  1.651881808420E+00  1.661793099271E+00  1.671763857866E+00
  1.681794441013E+00  1.691885207659E+00  1.702036518905E+00  1.712248738019E+00
  1.722522230447E+00  1.732857363830E+00  1.743254508013E+00  1.753714035061E+00
  1.764236319271E+00  1.774821737187E+00  1.785470667610E+00  1.796183491615E+00
  1.806960592565E+00  1.817802356121E+00  1.828709170257E+00  1.839681425279E+00
  1.850719513831E+00  1.861823830913E+00  1.872994773899E+00  1.884232742542E+00
  1.895538138998E+00  1.906911367832E+00  1.918352836039E+00  1.929862953055E+00
  1.941442130773E+00  1.953090783558E+00  1.964809328259E+00  1.976598184229E+00
  1.988457773334E+00  2.000388519974E+00  2.012390851094E+00  2.024465196200E+00
  2.036611987378E+00  2.048831659302E+00  2.061124649258E+00  2.073491397153E+00
  2.085932345536E+00  2.098447939609E+00  2.111038627247E+00  2.123704859011E+00
  2.136447088165E+00  2.149265770694E+00  2.162161365318E+00  2.175134333510E+00
  2.188185139511E+00  2.201314250348E+00  2.214522135850E+00  2.227809268665E+00
  2.241176124277E+00  2.254623181023E+00  2.268150920109E+00  2.281759825629E+00
  2.295450384583E+00  2.309223086891E+00  2.323078425412E+00  2.337016895965E+00
  2.351038997340E+00  2.365145231324E+00  2.379336102712E+00  2.393612119329E+00
  2.407973792045E+00  2.422421634797E+00  2.436956164606E+00  2.451577901593E+00
  2.466287369003E+00  2.481085093217E+00  2.495971603776E+00  2.510947433399E+00
  2.526013117999E+00  2.541169196707E+00  2.556416211887E+00  2.571754709159E+00
  2.587185237414E+00  2.602708348838E+00  2.618324598931E+00  2.634034546525E+00
  2.649838753804E+00  2.665737786327E+00  2.681732213045E+00  2.697822606323E+00
  2.714009541961E+00  2.730293599213E+00  2.746675360808E+00  2.763155412973E+00
  2.779734345451E+00  2.796412751523E+00  2.813191228033E+00  2.830070375401E+00
  2.847050797653E+00  2.864133102439E+00  2.881317901054E+00  2.898605808460E+00
  2.915997443311E+00  2.933493427971E+00  2.951094388538E+00  2.968800954870E+00
  2.986613760599E+00  3.004533443162E+00  3.022560643821E+00  3.040696007684E+00
  3.058940183730E+00  3.077293824833E+00  3.095757587782E+00  3.114332133309E+00
  3.133018126108E+00  3.151816234865E+00  3.170727132274E+00  3.189751495068E+00
  3.208890004038E+00  3.228143344063E+00  3.247512204127E+00  3.266997277352E+00
  3.286599261016E+00  3.306318856582E+00  3.326156769721E+00  3.346113710340E+00
  3.366190392602E+00  3.386387534957E+00  3.406705860167E+00  3.427146095328E+00
  3.447708971900E+00  3.468395225731E+00  3.489205597086E+00  3.510140830668E+00
  3.531201675652E+00  3.552388885706E+00  3.573703219021E+00  3.595145438335E+00
  3.616716310965E+00  3.638416608830E+00  3.660247108483E+00  3.682208591134E+00
  3.704301842681E+00  3.726527653737E+00  3.748886819660E+00  3.771380140578E+00
  3.794008421421E+00  3.816772471950E+00  3.839673106781E+00  3.862711145422E+00
  3.885887412294E+00  3.909202736768E+00  3.932657953189E+00  3.956253900908E+00
  3.979991424313E+00  4.003871372859E+00  4.027894601096E+00  4.052061968703E+00
  4.076374340515E+00  4.100832586558E+00  4.125437582078E+00  4.150190207570E+00
  4.175091348816E+00  4.200141896909E+00  4.225342748290E+00  4.250694804780E+00
  4.276198973608E+00  4.301856167450E+00  4.327667304455E+00  4.353633308281E+00
  4.379755108131E+00  4.406033638780E+00  4.432469840613E+00  4.459064659656E+00
  4.485819047614E+00  4.512733961900E+00  4.539810365671E+00  4.567049227865E+00
  4.594451523233E+00  4.622018232372E+00  4.649750341766E+00  4.677648843817E+00
  4.705714736880E+00  4.733949025301E+00  4.762352719453E+00  4.790926835769E+00
  4.819672396784E+00  4.848590431165E+00  4.877681973752E+00  4.906948065594E+00
  4.936389753988E+00  4.966008092512E+00  4.995804141067E+00  5.025778965913E+00
  5.055933639709E+00  5.086269241547E+00  5.116786856996E+00  5.147487578138E+00
  5.178372503607E+00  5.209442738629E+00  5.240699395060E+00  5.272143591431E+00
  5.303776452979E+00  5.335599111697E+00  5.367612706367E+00  5.399818382606E+00
  5.432217292901E+00  5.464810596659E+00  5.497599460239E+00  5.530585057000E+00
  5.563768567342E+00  5.597151178746E+00  5.630734085819E+00  5.664518490334E+00
  5.698505601276E+00  5.732696634883E+00  5.767092814693E+00  5.801695371581E+00
  5.836505543810E+00  5.871524577073E+00  5.906753724535E+00  5.942194246883E+00
  5.977847412364E+00  6.013714496838E+00  6.049796783819E+00  6.086095564522E+00
  6.122612137909E+00  6.159347810737E+00  6.196303897601E+00  6.233481720987E+00
  6.270882611313E+00  6.308507906980E+00  6.346358954422E+00  6.384437108149E+00
  6.422743730798E+00  6.461280193183E+00  6.500047874342E+00  6.539048161588E+00
  6.578282450557E+00  6.617752145261E+00  6.657458658132E+00  6.697403410081E+00
  6.737587830541E+00  6.778013357525E+00  6.818681437670E+00  6.859593526296E+00
  6.900751087454E+00  6.942155593978E+00  6.983808527542E+00  7.025711378707E+00
  7.067865646980E+00  7.110272840862E+00  7.152934477907E+00  7.195852084774E+00
  7.239027197283E+00  7.282461360467E+00  7.326156128629E+00  7.370113065401E+00
  7.414333743794E+00  7.458819746256E+00  7.503572664734E+00  7.548594100722E+00
  7.593885665327E+00  7.639448979319E+00  7.685285673194E+00  7.731397387234E+00
  7.777785771557E+00  7.824452486186E+00  7.871399201103E+00  7.918627596310E+00
  7.966139361888E+00  8.013936198059E+00  8.062019815248E+00  8.110391934139E+00
  8.159054285744E+00  8.208008611458E+00  8.257256663127E+00  8.306800203106E+00
  8.356641004325E+00  8.406780850351E+00  8.457221535453E+00  8.507964864665E+00
  8.559012653853E+00  8.610366729776E+00  8.662028930155E+00  8.714001103736E+00
  8.766285110358E+00  8.818882821021E+00  8.871796117947E+00  8.925026894654E+00
  8.978577056022E+00  9.032448518358E+00  9.086643209469E+00  9.141163068725E+00
  9.196010047138E+00  9.251186107421E+00  9.306693224065E+00  9.362533383410E+00
  9.418708583710E+00  9.475220835212E+00  9.532072160224E+00  9.589264593185E+00
  9.646800180744E+00  9.704680981828E+00  9.762909067719E+00  9.821486522126E+00
  9.880415441259E+00  9.939697933906E+00  9.999336121509E+00  1.005933213824E+01
  1.011968813107E+01  1.018040625985E+01  1.024148869741E+01  1.030293762960E+01
  1.036475525538E+01  1.042694378691E+01  1.048950544963E+01  1.055244248233E+01
  1.061575713722E+01  1.067945168004E+01  1.074352839012E+01  1.080798956047E+01
  1.087283749783E+01  1.093807452282E+01  1.100370296995E+01  1.106972518777E+01
  1.113614353890E+01  1.120296040013E+01  1.127017816253E+01  1.133779923151E+01
  1.140582602690E+01  1.147426098306E+01  1.154310654896E+01  1.161236518825E+01
  1.168203937938E+01  1.175213161566E+01  1.182264440535E+01  1.189358027178E+01
  1.196494175341E+01  1.203673140393E+01  1.210895179236E+01  1.218160550311E+01
  1.225469513613E+01  1.232822330695E+01  1.240219264679E+01  1.247660580267E+01
  1.255146543748E+01  1.262677423011E+01  1.270253487549E+01  1.277875008474E+01
  1.285542258525E+01  1.293255512076E+01  1.301015045149E+01  1.308821135420E+01
  1.316674062232E+01  1.324574106606E+01  1.332521551245E+01  1.340516680553E+01
  1.348559780636E+01  1.356651139320E+01  1.364791046156E+01  1.372979792433E+01
  1.381217671187E+01  1.389504977214E+01  1.397842007078E+01  1.406229059120E+01
  1.414666433475E+01  1.423154432076E+01  1.431693358668E+01  1.440283518820E+01
  1.448925219933E+01  1.457618771253E+01  1.466364483880E+01  1.475162670784E+01
  1.484013646808E+01  1.492917728689E+01  1.501875235061E+01  1.510886486472E+01
  1.519951805390E+01  1.529071516223E+01  1.538245945320E+01  1.547475420992E+01
  1.556760273518E+01  1.566100835159E+01  1.575497440170E+01  1.584950424811E+01
  1.594460127360E+01  1.604026888124E+01  1.613651049453E+01  1.623332955750E+01
  1.633072953484E+01  1.642871391205E+01  1.652728619552E+01  1.662644991269E+01
  1.672620861217E+01  1.682656586384E+01  1.692752525903E+01  1.702909041058E+01
  1.713126495304E+01  1.723405254276E+01  1.733745685802E+01  1.744148159917E+01
  1.754613048876E+01  1.765140727169E+01  1.775731571533E+01  1.786385960962E+01
  1.797104276727E+01  1.807886902388E+01  1.818734223802E+01  1.829646629145E+01
  1.840624508920E+01  1.851668255973E+01  1.862778265509E+01  1.873954935102E+01
  1.885198664713E+01  1.896509856701E+01  1.907888915841E+01  1.919336249336E+01
  1.930852266832E+01  1.942437380433E+01  1.954092004716E+01  1.965816556744E+01
  1.977611456085E+01  1.989477124821E+01  2.001413987570E+01  2.013422471496E+01
  2.025503006325E+01  2.037656024363E+01  2.049881960509E+01  2.062181252272E+01
  2.074554339785E+01  2.087001665824E+01  2.099523675819E+01  2.112120817874E+01
  2.124793542781E+01  2.137542304038E+01  2.150367557862E+01  2.163269763209E+01
  2.176249381789E+01  2.189306878079E+01  2.202442719348E+01  2.215657375664E+01
  2.228951319918E+01  2.242325027837E+01  2.255778978004E+01  2.269313651872E+01
  2.282929533784E+01  2.296627110986E+01  2.310406873652E+01  2.324269314894E+01
  2.338214930784E+01  2.352244220368E+01  2.366357685690E+01  2.380555831805E+01
  2.394839166795E+01  2.409208201796E+01  2.423663451007E+01  2.438205431713E+01
  2.452834664303E+01  2.467551672289E+01  2.482356982323E+01  2.497251124217E+01
  2.512234630962E+01  2.527308038748E+01  2.542471886980E+01  2.557726718302E+01
  2.573073078612E+01  2.588511517084E+01  2.604042586186E+01  2.619666841703E+01
  2.635384842754E+01  2.651197151810E+01  2.667104334721E+01  2.683106960729E+01
  2.699205602494E+01  2.715400836109E+01  2.731693241125E+01  2.748083400572E+01
  2.764571900975E+01  2.781159332381E+01  2.797846288376E+01  2.814633366106E+01
  2.831521166302E+01  2.848510293300E+01  2.865601355060E+01  2.882794963190E+01
  2.900091732970E+01  2.917492283367E+01  2.934997237068E+01  2.952607220490E+01
  2.970322863813E+01  2.988144800996E+01  3.006073669802E+01  3.024110111821E+01
  3.042254772492E+01  3.060508301127E+01  3.078871350933E+01  3.097344579039E+01
  3.115928646513E+01  3.134624218392E+01  3.153431963703E+01  3.172352555485E+01
  3.191386670818E+01  3.210534990843E+01  3.229798200788E+01  3.249176989992E+01
  3.268672051932E+01  3.288284084244E+01  3.308013788749E+01  3.327861871482E+01
  3.347829042711E+01  3.367916016967E+01  3.388123513069E+01  3.408452254147E+01
  3.428902967672E+01  3.449476385478E+01  3.470173243791E+01  3.490994283254E+01
  3.511940248953E+01  3.533011890447E+01  3.554209961790E+01  3.575535221560E+01
  3.596988432890E+01  3.618570363487E+01  3.640281785668E+01  3.662123476382E+01
  3.684096217240E+01  3.706200794544E+01  3.728437999311E+01  3.750808627307E+01
  3.773313479071E+01  3.795953359945E+01  3.818729080105E+01  3.841641454585E+01
  3.864691303313E+01  3.887879451133E+01  3.911206727840E+01  3.934673968207E+01
  3.958282012016E+01  3.982031704088E+01  4.005923894313E+01  4.029959437678E+01
  4.054139194305E+01  4.078464029470E+01  4.102934813647E+01  4.127552422529E+01
  4.152317737064E+01  4.177231643487E+01  4.202295033348E+01  4.227508803548E+01
  4.252873856369E+01  4.278391099507E+01  4.304061446104E+01  4.329885814781E+01
  4.355865129669E+01  4.382000320447E+01  4.408292322370E+01  4.434742076304E+01
  4.461350528762E+01
</grid-data>
</grid>
<valence-charge total-charge="6" is-unscreening-charge="yes"
 rescaled-to-z-pseudo="no">
<radfunc>
<data npts="797">
  1.466008120534E-02  1.472068287814E-02  1.490288991466E-02  1.520794190338E-02
  1.563325048218E-02  1.619392955231E-02  1.688358681143E-02  1.769639005171E-02
  1.866049145904E-02  1.974525291278E-02  2.097183813922E-02  2.230952892404E-02
  2.382137307359E-02  2.550255118766E-02  2.734070786658E-02  2.931516264563E-02
  3.139650957847E-02  3.354670911067E-02  3.597630307425E-02  3.843238643537E-02
  4.117534540710E-02  4.388206015513E-02  4.686951855233E-02  5.016769559754E-02
  5.333459828493E-02  5.678952476586E-02  6.055957083628E-02  6.467451325558E-02
  6.850084583463E-02  7.262708734424E-02  7.707767718728E-02  8.187914986890E-02
  8.706032181036E-02  9.169051569729E-02  9.662561718024E-02  1.018865633014E-01
  1.074957906603E-01  1.134773426338E-01  1.198569829416E-01  1.266623155331E-01
  1.324328818513E-01  1.385108764951E-01  1.449133042330E-01  1.516581201839E-01
  1.587642770775E-01  1.662517733772E-01  1.741417019635E-01  1.824562990037E-01
  1.912189925504E-01  2.004544503155E-01  2.101886259544E-01  2.204488030708E-01
  2.285063091613E-01  2.368883867937E-01  2.456080954141E-01  2.546789537661E-01
  2.641149448576E-01  2.739305192908E-01  2.841405966900E-01  2.947605649359E-01
  3.058062768860E-01  3.172940442295E-01  3.292406280928E-01  3.416632259789E-01
  3.545794545867E-01  3.680073280219E-01  3.819652308728E-01  3.964718855872E-01
  4.115463135495E-01  4.272077892189E-01  4.434757866559E-01  4.603699177306E-01
  4.779098612749E-01  4.961152824168E-01  5.150057413131E-01  5.279895258336E-01
  5.412920388602E-01  5.549188599512E-01  5.688754709452E-01  5.831672370085E-01
  5.977993864066E-01  6.127769889584E-01  6.281049331325E-01  6.437879017489E-01
  6.598303462535E-01  6.762364595341E-01  6.930101472519E-01  7.101549976696E-01
  7.276742499597E-01  7.455707609834E-01  7.638469705398E-01  7.825048650896E-01
  8.015459399676E-01  8.209711601066E-01  8.407809193049E-01  8.609749980810E-01
  8.815525201683E-01  9.025119077154E-01  9.238508352701E-01  9.455661826379E-01
  9.676539867181E-01  9.901093924363E-01  1.012926602905E+00  1.036098828962E+00
  1.059618238242E+00  1.083475903972E+00  1.107661753670E+00  1.132164517967E+00
  1.156971679774E+00  1.182069424044E+00  1.207442588377E+00  1.233074614758E+00
  1.258947502715E+00  1.285041764221E+00  1.311336380658E+00  1.337808762217E+00
  1.364434710083E+00  1.391188381823E+00  1.418042260392E+00  1.444967127188E+00
  1.471932039648E+00  1.498904313874E+00  1.525849512822E+00  1.552731440617E+00
  1.579512143601E+00  1.606151918730E+00  1.632609330002E+00  1.658841233620E+00
  1.684802812616E+00  1.710447621716E+00  1.735727643242E+00  1.760593354851E+00
  1.772854976787E+00  1.784993809944E+00  1.797003278860E+00  1.808876731568E+00
  1.820607443327E+00  1.832188620587E+00  1.843613405205E+00  1.854874878910E+00
  1.865966068022E+00  1.876879948439E+00  1.887609450874E+00  1.898147466371E+00
  1.908486852078E+00  1.918620437305E+00  1.928541029834E+00  1.938241422515E+00
  1.947714400126E+00  1.956952746497E+00  1.965949251902E+00  1.974696720714E+00
  1.983187979301E+00  1.991415884188E+00  1.999373330436E+00  2.007053260269E+00
  2.014448671907E+00  2.021552628605E+00  2.028358267888E+00  2.034858810956E+00
  2.041047572245E+00  2.046917969133E+00  2.052463531761E+00  2.057677912946E+00
  2.062554898180E+00  2.067088415665E+00  2.071272546377E+00  2.075101534132E+00
  2.078569795614E+00  2.081671930346E+00  2.084402730577E+00  2.086757191043E+00
  2.088730518590E+00  2.090318141610E+00  2.091515719278E+00  2.092319150548E+00
  2.092724582885E+00  2.092728420701E+00  2.092327333479E+00  2.091518263548E+00
  2.090298433490E+00  2.088665353160E+00  2.086616826295E+00  2.084150956711E+00
  2.081266154042E+00  2.077961139048E+00  2.074234948457E+00  2.070086939352E+00
  2.065516793085E+00  2.060524518744E+00  2.055110456156E+00  2.049275278443E+00
  2.043019994151E+00  2.036345948952E+00  2.029254826948E+00  2.021748651592E+00
  2.013829786254E+00  2.005500934444E+00  1.996765139741E+00  1.987625785426E+00
  1.978086593868E+00  1.968151625681E+00  1.957825278677E+00  1.947112286645E+00
  1.936017717967E+00  1.924546974102E+00  1.912705787949E+00  1.900500222091E+00
  1.887936666940E+00  1.875021838776E+00  1.861762777677E+00  1.848166845320E+00
  1.834241722654E+00  1.819995407396E+00  1.805436211345E+00  1.790572757447E+00
  1.775413976627E+00  1.759969104465E+00  1.744247677696E+00  1.728259529846E+00
  1.712014785792E+00  1.695523856194E+00  1.678797431309E+00  1.661846474221E+00
  1.644682213412E+00  1.627316113083E+00  1.609759752761E+00  1.592024657275E+00
  1.574122261300E+00  1.556063929313E+00  1.537860933697E+00  1.519524448905E+00
  1.501065543352E+00  1.482495171790E+00  1.463824167920E+00  1.445063237259E+00
  1.426222950259E+00  1.407313735695E+00  1.388345874304E+00  1.369329492710E+00
  1.350274557612E+00  1.331190870254E+00  1.312088061174E+00  1.292975585233E+00
  1.273862716931E+00  1.254758546006E+00  1.235671973318E+00  1.216611707024E+00
  1.197586259028E+00  1.178603941726E+00  1.159672865028E+00  1.140800933660E+00
  1.121995844755E+00  1.103265085704E+00  1.084615932297E+00  1.066055447117E+00
  1.047590478218E+00  1.029227658044E+00  1.010973402625E+00  9.928339110062E-01
  9.748151649397E-01  9.569229288054E-01  9.391627497738E-01  9.215399581956E-01
  9.040596682150E-01  8.867267785990E-01  8.695459737776E-01  8.525217250861E-01
  8.356582922044E-01  8.189597247853E-01  8.024298642645E-01  7.860723458463E-01
  7.698906006555E-01  7.538878580505E-01  7.380671480885E-01  7.224313041363E-01
  7.069829656182E-01  6.917245808953E-01  6.766584102668E-01  6.617865290872E-01
  6.471108309915E-01  6.326330312218E-01  6.183546700466E-01  6.042771162675E-01
  5.904015708050E-01  5.767290703563E-01  5.632604911200E-01  5.499965525784E-01
  5.369378213339E-01  5.240847149869E-01  5.114375060597E-01  4.989963259492E-01
  4.867611689085E-01  4.747318960492E-01  4.629082393607E-01  4.512898057385E-01
  4.398760810182E-01  4.286664340092E-01  4.176601205227E-01  4.068562873897E-01
  3.962539764650E-01  3.858521286111E-01  3.756495876591E-01  3.656451043424E-01
  3.558373401980E-01  3.462248714341E-01  3.368061927582E-01  3.275797211633E-01
  3.185437996691E-01  3.096967010158E-01  3.010366313058E-01  2.925617335936E-01
  2.842700914182E-01  2.761597322787E-01  2.682286310491E-01  2.604747133311E-01
  2.528958587434E-01  2.454899041451E-01  2.382546467925E-01  2.311878474278E-01
  2.242872332986E-01  2.175505011068E-01  2.109753198869E-01  2.045593338119E-01
  1.983001649275E-01  1.921954158125E-01  1.862426721671E-01  1.804395053264E-01
  1.747834747018E-01  1.692721301473E-01  1.639030142535E-01  1.586736645675E-01
  1.535816157399E-01  1.486244015991E-01  1.437995571529E-01  1.391046205191E-01
  1.345371347833E-01  1.300946497877E-01  1.257747238487E-01  1.215749254056E-01
  1.174928346008E-01  1.135260447927E-01  1.096721640009E-01  1.059288162866E-01
  1.022936430674E-01  9.876430436847E-02  9.533848001047E-02  9.201387073613E-02
  8.878819927553E-02  8.565921135193E-02  8.262467662890E-02  7.968238959994E-02
  7.683017042183E-02  7.406586569276E-02  7.138734917639E-02  6.879252247323E-02
  6.627931564019E-02  6.384568775986E-02  6.148962746046E-02  5.920915338787E-02
  5.700231463084E-02  5.486719110064E-02  5.280189386647E-02  5.080456544777E-02
  4.887338006471E-02  4.700654384816E-02  4.520229501028E-02  4.345890397716E-02
  4.177467348457E-02  4.014793863819E-02  3.857706693958E-02  3.706045827908E-02
  3.559654489699E-02  3.418379131408E-02  3.282069423297E-02  3.150578241133E-02
  3.023761650833E-02  2.901478890542E-02  2.783592350278E-02  2.669967549253E-02
  2.560473110998E-02  2.454980736408E-02  2.353365174813E-02  2.255504193211E-02
  2.161278543753E-02  2.070571929614E-02  1.983270969334E-02  1.899265159770E-02
  1.818446837727E-02  1.740711140408E-02  1.665955964749E-02  1.594081925776E-02
  1.524992314039E-02  1.458593052254E-02  1.394792651221E-02  1.333502165110E-02
  1.274635146212E-02  1.218107599225E-02  1.163837935158E-02  1.111746924939E-02
  1.061757652783E-02  1.013795469417E-02  9.677879451992E-03  9.236648232271E-03
  8.813579724771E-03  8.408013410423E-03  8.019309095253E-03  7.646846446364E-03
  7.290024530506E-03  6.948261355687E-03  6.620993416285E-03  6.307675242075E-03
  6.007778951566E-03  5.720793810009E-03  5.446225792408E-03  5.183597151860E-03
  4.932445993498E-03  4.692325854300E-03  4.462805289005E-03  4.243467462343E-03
  4.033909747785E-03  3.833743332961E-03  3.642592831912E-03  3.460095904295E-03
  3.285902881655E-03  3.119676400846E-03  2.961091044685E-03  2.809832989881E-03
  2.665599662294E-03  2.528099399528E-03  2.397051120887E-03  2.272184004679E-03
  2.153237172854E-03  2.039959382947E-03  1.932108727290E-03  1.829452339436E-03
  1.731766107743E-03  1.638834396048E-03  1.550449771351E-03  1.466412738435E-03
  1.386531481321E-03  1.310621611474E-03  1.238505922654E-03  1.170014152304E-03
  1.104982749376E-03  1.043254648475E-03  9.846790502108E-04  9.291112076377E-04
  8.764122186668E-04  8.264488243288E-04  7.790932127688E-04  7.342228288508E-04
  6.917201892506E-04  6.514727029176E-04  6.133724967845E-04  5.773162466050E-04
  5.432050128019E-04  5.109440812074E-04  4.804428085814E-04  4.516144727916E-04
  4.243761275442E-04  3.986484615547E-04  3.743556620490E-04  3.514252824890E-04
  3.297881144176E-04  3.093780633198E-04  2.901320284007E-04  2.719897861812E-04
  2.548938778138E-04  2.387895000266E-04  2.236243996015E-04  2.093487712961E-04
  1.959151591231E-04  1.832783608980E-04  1.713953359732E-04  1.602251160745E-04
  1.497287191593E-04  1.398690662180E-04  1.306109009409E-04  1.219207121745E-04
  1.137666590940E-04  1.061184990181E-04  9.894751779595E-05  9.222646269603E-05
  8.592947772895E-05  8.003204133662E-05  7.451090638265E-05  6.934404237924E-05
  6.451057988740E-05  5.999075702856E-05  5.576586804663E-05  5.181821386084E-05
  4.813105455086E-05  4.468856371656E-05  4.147578465612E-05  3.847858830710E-05
  3.568363289622E-05  3.307832524449E-05  3.065078367555E-05  2.838980247602E-05
  2.628481785753E-05  2.432587537134E-05  2.250359872732E-05  2.080915997002E-05
  1.923425096573E-05  1.777105615514E-05  1.641222652748E-05  1.515085477287E-05
  1.398045157044E-05  1.289492297115E-05  1.188854883480E-05  1.095596228195E-05
  1.009213012232E-05  9.292334222337E-06  8.552153775281E-06  7.867448438564E-06
  7.234342303642E-06  6.649208664918E-06  6.108655555014E-06  5.609512014700E-06
  5.148815066681E-06  4.723797363403E-06  4.331875479907E-06  3.970638823697E-06
  3.637839134448E-06  3.331380547291E-06  3.049310194262E-06  2.789809319354E-06
  2.551184883476E-06  2.331861636416E-06  2.130374633774E-06  1.945362177565E-06
  1.775559160037E-06  1.619790790983E-06  1.476966689581E-06  1.346075322565E-06
  1.226178771196E-06  1.116407810255E-06  1.015957282946E-06  9.240817562500E-07
  8.400914419482E-07  7.633483691541E-07  6.932627947996E-07  6.292898391322E-07
  5.709263338516E-07  5.177078710752E-07  4.692060418670E-07  4.250258535899E-07
  3.848033158480E-07  3.482031852778E-07  3.149168599184E-07  2.846604143493E-07
  2.571727672228E-07  2.322139732400E-07  2.095636320280E-07  1.890194067652E-07
  1.703956457770E-07  1.535221006841E-07  1.382427350300E-07  1.244146176454E-07
  1.119068953207E-07  1.005998396627E-07  9.038396329790E-08  8.115920086065E-08
  7.283415046719E-08  6.532537162648E-08  5.855673577698E-08  5.245882586504E-08
  4.696838159615E-08  4.202778719483E-08  3.758459870309E-08  3.359110803178E-08
  3.000394115344E-08  2.678368799078E-08  2.389456171122E-08  2.130408528571E-08
  1.898280330990E-08  1.690401721752E-08  1.504354214006E-08  1.337948378441E-08
  1.189203381023E-08  1.056328229280E-08  9.377045955011E-09  8.318710943648E-09